 Entering Gaussian System, Link 0=g16
 Input=int_zmat_field_N50.gjf
 Output=int_zmat_field_N50.out
 Initial command:
 /software/gaussian/g16-a03/l1.exe "/local_scratch/11174562/Gau-29445.inp" -scrdir="/local_scratch/11174562/"
 Entering Link 1 = /software/gaussian/g16-a03/l1.exe PID=     29448.
  
 Copyright (c) 1988,1990,1992,1993,1995,1998,2003,2009,2016,
            Gaussian, Inc.  All Rights Reserved.
  
 This is part of the Gaussian(R) 16 program.  It is based on
 the Gaussian(R) 09 system (copyright 2009, Gaussian, Inc.),
 the Gaussian(R) 03 system (copyright 2003, Gaussian, Inc.),
 the Gaussian(R) 98 system (copyright 1998, Gaussian, Inc.),
 the Gaussian(R) 94 system (copyright 1995, Gaussian, Inc.),
 the Gaussian 92(TM) system (copyright 1992, Gaussian, Inc.),
 the Gaussian 90(TM) system (copyright 1990, Gaussian, Inc.),
 the Gaussian 88(TM) system (copyright 1988, Gaussian, Inc.),
 the Gaussian 86(TM) system (copyright 1986, Carnegie Mellon
 University), and the Gaussian 82(TM) system (copyright 1983,
 Carnegie Mellon University). Gaussian is a federally registered
 trademark of Gaussian, Inc.
  
 This software contains proprietary and confidential information,
 including trade secrets, belonging to Gaussian, Inc.
  
 This software is provided under written license and may be
 used, copied, transmitted, or stored only in accord with that
 written license.
  
 The following legend is applicable only to US Government
 contracts under FAR:
  
                    RESTRICTED RIGHTS LEGEND
  
 Use, reproduction and disclosure by the US Government is
 subject to restrictions as set forth in subparagraphs (a)
 and (c) of the Commercial Computer Software - Restricted
 Rights clause in FAR 52.227-19.
  
 Gaussian, Inc.
 340 Quinnipiac St., Bldg. 40, Wallingford CT 06492
  
  
 ---------------------------------------------------------------
 Warning -- This program may not be used in any manner that
 competes with the business of Gaussian, Inc. or will provide
 assistance to any competitor of Gaussian, Inc.  The licensee
 of this program is prohibited from giving any competitor of
 Gaussian, Inc. access to this program.  By using this program,
 the user acknowledges that Gaussian, Inc. is engaged in the
 business of creating and licensing software in the field of
 computational chemistry and represents and warrants to the
 licensee that it is not a competitor of Gaussian, Inc. and that
 it will not use this program in any manner prohibited above.
 ---------------------------------------------------------------
  

 Cite this work as:
 Gaussian 16, Revision A.03,
 M. J. Frisch, G. W. Trucks, H. B. Schlegel, G. E. Scuseria, 
 M. A. Robb, J. R. Cheeseman, G. Scalmani, V. Barone, 
 G. A. Petersson, H. Nakatsuji, X. Li, M. Caricato, A. V. Marenich, 
 J. Bloino, B. G. Janesko, R. Gomperts, B. Mennucci, H. P. Hratchian, 
 J. V. Ortiz, A. F. Izmaylov, J. L. Sonnenberg, D. Williams-Young, 
 F. Ding, F. Lipparini, F. Egidi, J. Goings, B. Peng, A. Petrone, 
 T. Henderson, D. Ranasinghe, V. G. Zakrzewski, J. Gao, N. Rega, 
 G. Zheng, W. Liang, M. Hada, M. Ehara, K. Toyota, R. Fukuda, 
 J. Hasegawa, M. Ishida, T. Nakajima, Y. Honda, O. Kitao, H. Nakai, 
 T. Vreven, K. Throssell, J. A. Montgomery, Jr., J. E. Peralta, 
 F. Ogliaro, M. J. Bearpark, J. J. Heyd, E. N. Brothers, K. N. Kudin, 
 V. N. Staroverov, T. A. Keith, R. Kobayashi, J. Normand, 
 K. Raghavachari, A. P. Rendell, J. C. Burant, S. S. Iyengar, 
 J. Tomasi, M. Cossi, J. M. Millam, M. Klene, C. Adamo, R. Cammi, 
 J. W. Ochterski, R. L. Martin, K. Morokuma, O. Farkas, 
 J. B. Foresman, and D. J. Fox, Gaussian, Inc., Wallingford CT, 2016.
 
 ******************************************
 Gaussian 16:  ES64L-G16RevA.03 25-Dec-2016
                10-Jun-2022 
 ******************************************
 %nprocshared=12
 Will use up to   12 processors via shared memory.
 %chk=checkpoint.chk
 %mem=12GB
 ----------------------------------------------------------------------
 # Opt=(Z-matrix, MaxStep=10) B3LYP/Def2TZVP geom=allcheckpoint guess=r
 ead Field=read NoSymm freq=noraman pop=none
 ----------------------------------------------------------------------
 1/8=10,10=7,18=40,26=3,29=7,38=1/1,3;
 2/12=2,15=1,29=3,40=1/2;
 3/5=44,7=101,11=2,14=-6,25=1,30=1,71=1,74=-5,116=-2/1,2,3;
 4/5=1/1;
 5/5=2,38=6/2;
 7/29=1,30=1/1,2,3,16;
 1/8=10,10=7,18=40,26=3/3(2);
 2/15=1,29=3/2;
 99//99;
 2/15=1,29=3/2;
 3/5=44,7=101,11=2,14=-2,25=1,30=1,71=1,74=-5/1,2,3;
 4/5=5,16=3,69=1/1;
 5/5=2,38=5/2;
 7/30=1/1,2,3,16;
 1/8=10,18=40,26=3/3(-5);
 2/15=1,29=3/2;
 99/9=1/99;
 Structure from the checkpoint file:  "checkpoint.chk"
 ------------------
 int_zmat_initalOpt
 ------------------
 Charge =  0 Multiplicity = 1
 Z-Matrix found in chk file.
 H
 N,1,R2
 C,2,R3,1,A3
 C,2,R4,1,A4,3,D4,0
 H,3,R5,2,A5,1,D5,0
 C,3,R6,2,A6,5,D6,0
 C,4,R7,2,A7,1,D7,0
 C,4,R8,2,A8,7,D8,0
 H,6,R9,3,A9,2,D9,0
 H,8,R10,4,A10,2,D10,0
 H,7,R11,4,A11,2,D11,0
 C,8,R12,4,A12,10,D12,0
 H,12,R13,8,A13,4,D13,0
 C,12,R14,8,A14,13,D14,0
 H,14,R15,12,A15,8,D15,0
 C,14,R16,12,A16,15,D16,0
 O,16,R17,14,A17,12,D17,0
      Variables:
 R2=1.00527453
 R3=1.3630425
 R4=1.38203289
 R5=1.07648965
 R6=1.37657668
 R7=1.3902182
 R8=1.44199734
 R9=1.0771461
 R10=1.08628428
 R11=1.07549111
 R12=1.34758623
 R13=1.08309654
 R14=1.45565511
 R15=1.08568321
 R16=1.31889389
 R17=1.16039212
 A3=125.41816231
 A4=123.84040151
 A5=121.46394448
 A6=107.63664128
 A7=106.04560488
 A8=119.26704429
 A9=125.72148118
 A10=114.08743547
 A11=126.18798687
 A12=131.07873892
 A13=116.12978495
 A14=131.43890614
 A15=117.73185782
 A16=130.32984559
 A17=175.85538593
 D4=-179.04864611
 D5=0.20518318
 D6=-179.68971051
 D7=179.48713407
 D8=176.67404695
 D9=-179.40472373
 D10=-15.49372105
 D11=176.86427985
 D12=-179.23003772
 D13=175.93428235
 D14=179.39634332
 D15=166.93080264
 D16=173.49211237
 D17=176.94724251
 Recover connectivity data from disk.

 GradGradGradGradGradGradGradGradGradGradGradGradGradGradGradGradGradGrad
 Berny optimization.
 Initialization pass.
                       ----------------------------
                       !    Initial Parameters    !
                       ! (Angstroms and Degrees)  !
 ----------------------                            ----------------------
 !      Name          Value   Derivative information (Atomic Units)     !
 ------------------------------------------------------------------------
 !       R2          1.0053   estimate D2E/DX2                          !
 !       R3          1.363    estimate D2E/DX2                          !
 !       R4          1.382    estimate D2E/DX2                          !
 !       R5          1.0765   estimate D2E/DX2                          !
 !       R6          1.3766   estimate D2E/DX2                          !
 !       R7          1.3902   estimate D2E/DX2                          !
 !       R8          1.442    estimate D2E/DX2                          !
 !       R9          1.0771   estimate D2E/DX2                          !
 !       R10         1.0863   estimate D2E/DX2                          !
 !       R11         1.0755   estimate D2E/DX2                          !
 !       R12         1.3476   estimate D2E/DX2                          !
 !       R13         1.0831   estimate D2E/DX2                          !
 !       R14         1.4557   estimate D2E/DX2                          !
 !       R15         1.0857   estimate D2E/DX2                          !
 !       R16         1.3189   estimate D2E/DX2                          !
 !       R17         1.1604   estimate D2E/DX2                          !
 !       A3        125.4182   estimate D2E/DX2                          !
 !       A4        123.8404   estimate D2E/DX2                          !
 !       A5        121.4639   estimate D2E/DX2                          !
 !       A6        107.6366   estimate D2E/DX2                          !
 !       A7        106.0456   estimate D2E/DX2                          !
 !       A8        119.267    estimate D2E/DX2                          !
 !       A9        125.7215   estimate D2E/DX2                          !
 !       A10       114.0874   estimate D2E/DX2                          !
 !       A11       126.188    estimate D2E/DX2                          !
 !       A12       131.0787   estimate D2E/DX2                          !
 !       A13       116.1298   estimate D2E/DX2                          !
 !       A14       131.4389   estimate D2E/DX2                          !
 !       A15       117.7319   estimate D2E/DX2                          !
 !       A16       130.3298   estimate D2E/DX2                          !
 !       A17       175.8554   estimate D2E/DX2                          !
 !       D4       -179.0486   estimate D2E/DX2                          !
 !       D5          0.2052   estimate D2E/DX2                          !
 !       D6       -179.6897   estimate D2E/DX2                          !
 !       D7        179.4871   estimate D2E/DX2                          !
 !       D8        176.674    estimate D2E/DX2                          !
 !       D9       -179.4047   estimate D2E/DX2                          !
 !       D10       -15.4937   estimate D2E/DX2                          !
 !       D11       176.8643   estimate D2E/DX2                          !
 !       D12      -179.23     estimate D2E/DX2                          !
 !       D13       175.9343   estimate D2E/DX2                          !
 !       D14       179.3963   estimate D2E/DX2                          !
 !       D15       166.9308   estimate D2E/DX2                          !
 !       D16       173.4921   estimate D2E/DX2                          !
 !       D17       176.9472   estimate D2E/DX2                          !
 ------------------------------------------------------------------------
 Trust Radius=1.00D-01 FncErr=1.00D-07 GrdErr=1.00D-06 EigMax=2.50D+02 EigMin=1.00D-04
 Number of steps in this run=     55 maximum allowed number of steps=    100.
 GradGradGradGradGradGradGradGradGradGradGradGradGradGradGradGradGradGrad

 ---------------------------------------------------------------------------------------------------
                            Z-MATRIX (ANGSTROMS AND DEGREES)
   CD    Cent   Atom    N1       Length/X        N2       Alpha/Y        N3        Beta/Z          J
 ---------------------------------------------------------------------------------------------------
      1      1  H 
      2      2  N        1   1.005275(     1)
      3      3  C        2   1.363043(     2)      1  125.418(    17)
      4      4  C        2   1.382033(     3)      1  123.840(    18)      3 -179.049(    32)      0
      5      5  H        3   1.076490(     4)      2  121.464(    19)      1    0.205(    33)      0
      6      6  C        3   1.376577(     5)      2  107.637(    20)      5 -179.690(    34)      0
      7      7  C        4   1.390218(     6)      2  106.046(    21)      1  179.487(    35)      0
      8      8  C        4   1.441997(     7)      2  119.267(    22)      7  176.674(    36)      0
      9      9  H        6   1.077146(     8)      3  125.721(    23)      2 -179.405(    37)      0
     10     10  H        8   1.086284(     9)      4  114.087(    24)      2  -15.494(    38)      0
     11     11  H        7   1.075491(    10)      4  126.188(    25)      2  176.864(    39)      0
     12     12  C        8   1.347586(    11)      4  131.079(    26)     10 -179.230(    40)      0
     13     13  H       12   1.083097(    12)      8  116.130(    27)      4  175.934(    41)      0
     14     14  C       12   1.455655(    13)      8  131.439(    28)     13  179.396(    42)      0
     15     15  H       14   1.085683(    14)     12  117.732(    29)      8  166.931(    43)      0
     16     16  C       14   1.318894(    15)     12  130.330(    30)     15  173.492(    44)      0
     17     17  O       16   1.160392(    16)     14  175.855(    31)     12  176.947(    45)      0
 ---------------------------------------------------------------------------------------------------
                         Z-Matrix orientation:                         
 ---------------------------------------------------------------------
 Center     Atomic      Atomic             Coordinates (Angstroms)
 Number     Number       Type             X           Y           Z
 ---------------------------------------------------------------------
      1          1           0        0.000000    0.000000    0.000000
      2          7           0        0.000000    0.000000    1.005275
      3          6           0        1.110803    0.000000    1.795212
      4          6           0       -1.147747   -0.019059    1.774903
      5          1           0        2.100846    0.003288    1.372560
      6          6           0        0.690444   -0.011802    3.105983
      7          6           0       -0.722774   -0.023963    3.098565
      8          6           0       -2.433451    0.043820    1.125005
      9          1           0        1.331025   -0.005726    3.971929
     10          1           0       -2.390991    0.366062    0.088486
     11          1           0       -1.354374    0.009716    3.968409
     12          6           0       -3.672707   -0.214832    1.586883
     13          1           0       -4.487642   -0.022134    0.899972
     14          6           0       -4.135625   -0.729489    2.867417
     15          1           0       -5.195595   -0.652694    3.089394
     16          6           0       -3.489539   -1.398985    3.802206
     17          8           0       -2.991202   -1.985387    4.670712
 ---------------------------------------------------------------------
                    Distance matrix (angstroms):
                    1          2          3          4          5
     1  H    0.000000
     2  N    1.005275   0.000000
     3  C    2.111082   1.363043   0.000000
     4  C    2.113757   1.382033   2.258722   0.000000
     5  H    2.509480   2.132713   1.076490   3.273490   0.000000
     6  C    3.181821   2.211296   1.376577   2.269532   2.234775
     7  C    3.181836   2.214687   2.249736   1.390218   3.309481
     8  C    2.681276   2.436789   3.607331   1.441997   4.541231
     9  H    4.189019   3.251569   2.187837   3.312312   2.710982
    10  H    2.420469   2.586763   3.912733   2.130253   4.685836
    11  H    4.193172   3.258004   3.286332   2.203404   4.321691
    12  C    4.006636   3.724675   4.792862   2.539508   5.781646
    13  H    4.577048   4.488932   5.669615   3.452595   6.605465
    14  C    5.085040   4.593814   5.404331   3.259710   6.454854
    15  H    6.079850   5.635936   6.470825   4.302842   7.524353
    16  C    5.347038   4.685816   5.210407   3.390891   6.254755
    17  O    5.891061   5.130739   5.388573   3.956069   6.384481
                    6          7          8          9         10
     6  C    0.000000
     7  C    1.413290   0.000000
     8  C    3.699472   2.612652   0.000000
     9  H    1.077146   2.231858   4.720033   0.000000
    10  H    4.329355   3.463472   1.086284   5.391916   0.000000
    11  H    2.219351   1.075491   3.041466   2.685446   4.031794
    12  C    4.624497   3.320199   1.347586   5.547027   2.055585
    13  H    5.628425   4.359822   2.067532   6.579824   2.281480
    14  C    4.884970   3.492670   2.555661   5.623881   3.459254
    15  H    5.920851   4.516804   3.460260   6.617719   4.231917
    16  C    4.458841   3.168720   3.219381   5.020739   4.256044
    17  O    4.460710   3.385941   4.123204   4.805102   5.185206
                   11         12         13         14         15
    11  H    0.000000
    12  C    3.331180   0.000000
    13  H    4.385623   1.083097   0.000000
    14  C    3.081228   1.455655   2.120167   0.000000
    15  H    3.995802   2.183678   2.385870   1.085683   0.000000
    16  C    2.563395   2.518615   3.363761   1.318894   1.993910
    17  O    2.674486   3.620678   4.506903   2.477671   3.022579
                   16         17
    16  C    0.000000
    17  O    1.160392   0.000000
 Symmetry turned off by external request.
 Stoichiometry    C8H7NO
 Framework group  C1[X(C8H7NO)]
 Deg. of freedom    45
 Full point group                 C1      NOp   1
 Rotational constants (GHZ):           2.4406748           0.9514238           0.7088870
 Standard basis: def2TZVP (5D, 7F)
 The following finite field(s) will be applied:
 An electric field of             -0.0041 -0.0007  0.0028
   352 basis functions,   566 primitive gaussians,   402 cartesian basis functions
    35 alpha electrons       35 beta electrons
       nuclear repulsion energy       458.6772262899 Hartrees.
 NAtoms=   17 NActive=   17 NUniq=   17 SFac= 1.00D+00 NAtFMM=   60 NAOKFM=F Big=F
 Integral buffers will be    131072 words long.
 Raffenetti 2 integral format.
 Two-electron integral symmetry is turned off.
 One-electron integrals computed using PRISM.
   1 Symmetry operations used in ECPInt.
 ECPInt:  NShTT=    9591 NPrTT=   29644 LenC2=    9204 LenP2D=   22082.
 LDataN:  DoStor=T MaxTD1= 6 Len=  172
 NBasis=   352 RedAO= T EigKep=  3.21D-05  NBF=   352
 NBsUse=   352 1.00D-06 EigRej= -1.00D+00 NBFU=   352
 The nuclear repulsion energy is now       460.5275238252 hartrees.
 Initial guess from the checkpoint file:  "checkpoint.chk"
 B after Tr=     0.000000    0.000000   -0.000000
         Rot=    1.000000    0.000000    0.000000    0.000000 Ang=   0.00 deg.
 Requested convergence on RMS density matrix=1.00D-08 within 128 cycles.
 Requested convergence on MAX density matrix=1.00D-06.
 Requested convergence on             energy=1.00D-06.
 No special actions if energy rises.
 SCF Done:  E(RB3LYP) =  -439.157907828     A.U. after   11 cycles
            NFock= 11  Conv=0.53D-08     -V/T= 2.0049
   1 Symmetry operations used in ECPInt.
 ECPInt:  NShTT=    9591 NPrTT=   29644 LenC2=    9204 LenP2D=   22082.
 LDataN:  DoStor=T MaxTD1= 7 Len=  274
 Calling FoFJK, ICntrl=      2127 FMM=F ISym2X=0 I1Cent= 0 IOpClX= 0 NMat=1 NMatS=1 NMatT=0.
 -------------------------------------------------------------------
 Center     Atomic                   Forces (Hartrees/Bohr)
 Number     Number              X              Y              Z
 -------------------------------------------------------------------
      1        1           0.001517277   -0.000195423   -0.000425275
      2        7          -0.000232485    0.000721002    0.000970198
      3        6          -0.001162110   -0.000490153   -0.001274271
      4        6          -0.000596016    0.000038368   -0.001137281
      5        1           0.000040387    0.000073904   -0.000022546
      6        6          -0.000884320   -0.000010332    0.000721298
      7        6           0.000647743   -0.000268455    0.000519307
      8        6           0.001096643   -0.000011821    0.000808179
      9        1           0.000107713    0.000093065   -0.000155560
     10        1          -0.000016373   -0.000158528    0.000056739
     11        1          -0.000062490    0.000084659    0.000120631
     12        6          -0.000386626    0.000852644   -0.001346973
     13        1          -0.000031809   -0.000098523   -0.000099929
     14        6           0.000295054   -0.000695128    0.001306005
     15        1          -0.000010749    0.000052236   -0.000014294
     16        6          -0.000992413    0.001382745   -0.002444551
     17        8           0.000670573   -0.001370258    0.002418322
 -------------------------------------------------------------------
 Cartesian Forces:  Max     0.002444551 RMS     0.000828010
 -----------------------------------------------------------------------------------------------
                       Internal Coordinate Forces (Hartree/Bohr or radian)
  Cent   Atom   N1       Length/X         N2         Alpha/Y        N3         Beta/Z          J
 -----------------------------------------------------------------------------------------------
      1  H 
      2  N        1   0.000425(     1)
      3  C        2  -0.001971(     2)      1   0.002399(    17)
      4  C        2  -0.000403(     3)      1   0.001543(    18)      3  -0.000641(    32)     0
      5  H        3   0.000046(     4)      2  -0.000010(    19)      1  -0.000158(    33)     0
      6  C        3   0.000775(     5)      2  -0.001107(    20)      5  -0.000286(    34)     0
      7  C        4   0.000789(     6)      2  -0.000986(    21)      1  -0.000387(    35)     0
      8  C        4  -0.000867(     7)      2  -0.000802(    22)      7   0.000028(    36)     0
      9  H        6  -0.000060(     8)      3  -0.000367(    23)      2   0.000150(    37)     0
     10  H        8  -0.000102(     9)      4   0.000053(    24)      2   0.000868(    38)     0
     11  H        7   0.000137(    10)      4   0.000037(    25)      2  -0.000133(    39)     0
     12  C        8   0.000333(    11)      4   0.001805(    26)     10   0.000619(    40)     0
     13  H       12   0.000070(    12)      8  -0.000038(    27)      4   0.000325(    41)     0
     14  C       12   0.001348(    13)      8   0.000858(    28)     13   0.000096(    42)     0
     15  H       14   0.000011(    14)     12  -0.000076(    29)      8  -0.000158(    43)     0
     16  C       14  -0.000183(    15)     12   0.001995(    30)     15  -0.000087(    44)     0
     17  O       16   0.002790(    16)     14  -0.001367(    31)     12  -0.000002(    45)     0
 -----------------------------------------------------------------------------------------------
 Internal  Forces:  Max     0.002790454 RMS     0.000930347

 GradGradGradGradGradGradGradGradGradGradGradGradGradGradGradGradGradGrad
 Berny optimization.
 Search for a local minimum.
 Step number   1 out of a maximum of   55
 All quantities printed in internal units (Hartrees-Bohrs-Radians)
 Second derivative matrix not updated -- first step.
 ITU=  0
     Eigenvalues ---   -0.57139  -0.48229  -0.03753   0.02246   0.03346
     Eigenvalues ---    0.04175   0.04770   0.05373   0.06936   0.08156
     Eigenvalues ---    0.11174   0.11756   0.14619   0.18429   0.18562
     Eigenvalues ---    0.19214   0.20670   0.21794   0.24114   0.25800
     Eigenvalues ---    0.30506   0.32621   0.35245   0.35317   0.35623
     Eigenvalues ---    0.36342   0.36422   0.36545   0.37514   0.39313
     Eigenvalues ---    0.41952   0.46773   0.48137   0.48679   0.49443
     Eigenvalues ---    0.50392   0.51705   0.54495   0.55540   0.62212
     Eigenvalues ---    0.65343   1.16463   1.27538   1.85538  20.97582
 RFO step:  Lambda=-5.71389589D-01 EMin=-5.71388410D-01
 I=     1 Eig=   -5.71D-01 Dot1=  2.05D-04
 I=     1 Stepn=  2.50D-01 RXN=   2.50D-01 EDone=F
 I=     2 Eig=   -4.82D-01 Dot1=  3.69D-04
 I=     2 Stepn=  1.25D-01 RXN=   2.80D-01 EDone=F
 I=     3 Eig=   -3.75D-02 Dot1=  1.73D-06
 I=     3 Stepn=  6.25D-02 RXN=   2.86D-01 EDone=F
 Mixed    3 eigenvectors in step.  Raw Step.Grad=  5.76D-04.
 RFO eigenvector is Hessian eigenvector with negative curvature.
 Taking step of  2.86D-01 in eigenvector direction(s).  Step.Grad=  1.82D-04.
 Linear search not attempted -- first point.
 Maximum step size (   0.100) exceeded in Quadratic search.
    -- Step size scaled by   0.349
 Variable       Old X    -DE/DX   Delta X   Delta X   Delta X     New X
                                 (Linear)    (Quad)   (Total)
    R2        1.89969   0.00043   0.00000   0.00000   0.00000   1.89969
    R3        2.57578  -0.00197   0.00000  -0.00119  -0.00119   2.57459
    R4        2.61166  -0.00040   0.00000  -0.00184  -0.00184   2.60982
    R5        2.03427   0.00005   0.00000  -0.00000  -0.00000   2.03427
    R6        2.60135   0.00078   0.00000   0.00106   0.00106   2.60242
    R7        2.62713   0.00079   0.00000   0.00014   0.00014   2.62727
    R8        2.72498  -0.00087   0.00000  -0.00004  -0.00004   2.72494
    R9        2.03551  -0.00006   0.00000  -0.00001  -0.00001   2.03551
   R10        2.05278  -0.00010   0.00000   0.00002   0.00002   2.05280
   R11        2.03238   0.00014   0.00000   0.00001   0.00001   2.03240
   R12        2.54657   0.00033   0.00000  -0.00011  -0.00011   2.54646
   R13        2.04676   0.00007   0.00000   0.00005   0.00005   2.04680
   R14        2.75079   0.00135   0.00000  -0.00005  -0.00005   2.75074
   R15        2.05164   0.00001   0.00000  -0.00003  -0.00003   2.05162
   R16        2.49235  -0.00018   0.00000  -0.00042  -0.00042   2.49193
   R17        2.19282   0.00279   0.00000   0.00003   0.00003   2.19285
    A3        2.18896   0.00240   0.00000   0.01103   0.01103   2.19999
    A4        2.16142   0.00154   0.00000  -0.01579  -0.01579   2.14563
    A5        2.11995  -0.00001   0.00000   0.00058   0.00058   2.12053
    A6        1.87861  -0.00111   0.00000  -0.00397  -0.00397   1.87464
    A7        1.85084  -0.00099   0.00000  -0.00094  -0.00094   1.84991
    A8        2.08160  -0.00080   0.00000  -0.02090  -0.02090   2.06070
    A9        2.19425  -0.00037   0.00000  -0.00024  -0.00024   2.19402
   A10        1.99120   0.00005   0.00000  -0.00312  -0.00312   1.98808
   A11        2.20240   0.00004   0.00000   0.00017   0.00017   2.20257
   A12        2.28776   0.00181   0.00000   0.01890   0.01890   2.30666
   A13        2.02685  -0.00004   0.00000  -0.00379  -0.00379   2.02305
   A14        2.29404   0.00086   0.00000   0.01646   0.01646   2.31050
   A15        2.05481  -0.00008   0.00000  -0.00670  -0.00670   2.04811
   A16        2.27468   0.00200   0.00000   0.01949   0.01949   2.29418
   A17        3.06926  -0.00137   0.00000  -0.01216  -0.01216   3.05709
    D4       -3.12499  -0.00064   0.00000  -0.01395  -0.01395  -3.13894
    D5        0.00358  -0.00016   0.00000  -0.01120  -0.01120  -0.00762
    D6       -3.13618  -0.00029   0.00000  -0.00626  -0.00626  -3.14244
    D7        3.13264  -0.00039   0.00000   0.03043   0.03043   3.16307
    D8        3.08354   0.00003   0.00000   0.02159   0.02159   3.10513
    D9       -3.13120   0.00015   0.00000  -0.00067  -0.00067  -3.13187
   D10       -0.27042   0.00087   0.00000   0.04331   0.04331  -0.22710
   D11        3.08686  -0.00013   0.00000  -0.00217  -0.00217   3.08470
   D12       -3.12815   0.00062   0.00000   0.03223   0.03223  -3.09592
   D13        3.07063   0.00033   0.00000   0.03348   0.03348   3.10411
   D14        3.13106   0.00010   0.00000   0.03587   0.03587   3.16693
   D15        2.91349  -0.00016   0.00000   0.01703   0.01703   2.93052
   D16        3.02801  -0.00009   0.00000   0.02383   0.02383   3.05184
   D17        3.08831  -0.00000   0.00000  -0.00273  -0.00273   3.08558
         Item               Value     Threshold  Converged?
 Maximum Force            0.002790     0.000450     NO 
 RMS     Force            0.000930     0.000300     NO 
 Maximum Displacement     0.043314     0.001800     NO 
 RMS     Displacement     0.014907     0.001200     NO 
 Predicted change in Energy=-2.846251D-03
 GradGradGradGradGradGradGradGradGradGradGradGradGradGradGradGradGradGrad

 ---------------------------------------------------------------------------------------------------
                            Z-MATRIX (ANGSTROMS AND DEGREES)
   CD    Cent   Atom    N1       Length/X        N2       Alpha/Y        N3        Beta/Z          J
 ---------------------------------------------------------------------------------------------------
      1      1  H 
      2      2  N        1   1.005275(     1)
      3      3  C        2   1.362415(     2)      1  126.050(    17)
      4      4  C        2   1.381058(     3)      1  122.935(    18)      3 -179.848(    32)      0
      5      5  H        3   1.076489(     4)      2  121.497(    19)      1   -0.437(    33)      0
      6      6  C        3   1.377139(     5)      2  107.409(    20)      5 -180.048(    34)      0
      7      7  C        4   1.390291(     6)      2  105.992(    21)      1  181.230(    35)      0
      8      8  C        4   1.441979(     7)      2  118.069(    22)      7  177.911(    36)      0
      9      9  H        6   1.077143(     8)      3  125.708(    23)      2 -179.443(    37)      0
     10     10  H        8   1.086293(     9)      4  113.909(    24)      2  -13.012(    38)      0
     11     11  H        7   1.075499(    10)      4  126.198(    25)      2  176.740(    39)      0
     12     12  C        8   1.347528(    11)      4  132.162(    26)     10 -177.383(    40)      0
     13     13  H       12   1.083123(    12)      8  115.912(    27)      4  177.852(    41)      0
     14     14  C       12   1.455630(    13)      8  132.382(    28)     13  181.452(    42)      0
     15     15  H       14   1.085668(    14)     12  117.348(    29)      8  167.906(    43)      0
     16     16  C       14   1.318673(    15)     12  131.447(    30)     15  174.858(    44)      0
     17     17  O       16   1.160407(    16)     14  175.159(    31)     12  176.791(    45)      0
 ---------------------------------------------------------------------------------------------------
                         Z-Matrix orientation:                         
 ---------------------------------------------------------------------
 Center     Atomic      Atomic             Coordinates (Angstroms)
 Number     Number       Type             X           Y           Z
 ---------------------------------------------------------------------
      1          1           0        0.000000    0.000000    0.000000
      2          7           0        0.000000    0.000000    1.005275
      3          6           0        1.101513    0.000000    1.807050
      4          6           0       -1.159095   -0.003080    1.756148
      5          1           0        2.096384   -0.006994    1.395942
      6          6           0        0.661346    0.011122    3.111903
      7          6           0       -0.754167    0.026694    3.085831
      8          6           0       -2.420306    0.012639    1.057291
      9          1           0        1.289161    0.022484    3.987092
     10          1           0       -2.335114    0.249084    0.000471
     11          1           0       -1.398724    0.082307    3.944988
     12          6           0       -3.688647   -0.165911    1.475937
     13          1           0       -4.456112   -0.061650    0.718784
     14          6           0       -4.258854   -0.453559    2.783982
     15          1           0       -5.334440   -0.353172    2.892206
     16          6           0       -3.712434   -0.914049    3.892256
     17          8           0       -3.319110   -1.308320    4.910290
 ---------------------------------------------------------------------
                    Distance matrix (angstroms):
                    1          2          3          4          5
     1  H    0.000000
     2  N    1.005275   0.000000
     3  C    2.116308   1.362415   0.000000
     4  C    2.104178   1.381058   2.261183   0.000000
     5  H    2.518636   2.132486   1.076489   3.275349   0.000000
     6  C    3.181422   2.208028   1.377139   2.269863   2.237004
     7  C    3.176765   2.213187   2.253784   1.390291   3.313986
     8  C    2.641194   2.420898   3.600765   1.441979   4.529411
     9  H    4.190388   3.248643   2.188219   3.312359   2.714137
    10  H    2.348361   2.554296   3.890524   2.128147   4.653073
    11  H    4.186423   3.256550   3.290705   2.203573   4.326823
    12  C    3.976434   3.722252   4.804455   2.550228   5.787766
    13  H    4.514132   4.465738   5.663508   3.456860   6.587620
    14  C    5.108239   4.637602   5.467508   3.296647   6.520363
    15  H    6.078309   5.669347   6.536344   4.341279   7.587872
    16  C    5.455943   4.790857   5.325190   3.451429   6.387230
    17  O    6.069525   5.289361   5.557311   4.039545   6.585717
                    6          7          8          9         10
     6  C    0.000000
     7  C    1.415838   0.000000
     8  C    3.703784   2.625108   0.000000
     9  H    1.077143   2.233266   4.726942   0.000000
    10  H    4.326246   3.473945   1.086293   5.392575   0.000000
    11  H    2.223283   1.075499   3.063867   2.688880   4.057567
    12  C    4.650823   3.352615   1.347528   5.578527   2.044815
    13  H    5.649840   4.394897   2.065094   6.610377   2.260788
    14  C    4.952962   3.550294   2.564968   5.696891   3.455780
    15  H    6.010859   4.600076   3.463078   6.723986   4.209608
    16  C    4.538154   3.207283   3.250442   5.089404   4.289042
    17  O    4.562800   3.419041   4.171137   4.884618   5.244051
                   11         12         13         14         15
    11  H    0.000000
    12  C    3.376621   0.000000
    13  H    4.447104   1.083123   0.000000
    14  C    3.132959   1.455630   2.111290   0.000000
    15  H    4.097298   2.179340   2.362246   1.085668   0.000000
    16  C    2.519674   2.529600   3.369060   1.318673   1.986351
    17  O    2.559987   3.638191   4.518371   2.476877   3.007745
                   16         17
    16  C    0.000000
    17  O    1.160407   0.000000
 Symmetry turned off by external request.
 Stoichiometry    C8H7NO
 Framework group  C1[X(C8H7NO)]
 Deg. of freedom    45
 Full point group                 C1      NOp   1
 Rotational constants (GHZ):           2.4872085           0.9253425           0.6848631
 Standard basis: def2TZVP (5D, 7F)
 The following finite field(s) will be applied:
 An electric field of             -0.0041 -0.0007  0.0028
   352 basis functions,   566 primitive gaussians,   402 cartesian basis functions
    35 alpha electrons       35 beta electrons
       nuclear repulsion energy       456.9612307203 Hartrees.
 NAtoms=   17 NActive=   17 NUniq=   17 SFac= 1.00D+00 NAtFMM=   60 NAOKFM=F Big=F
 Integral buffers will be    131072 words long.
 Raffenetti 2 integral format.
 Two-electron integral symmetry is turned off.
 One-electron integrals computed using PRISM.
   1 Symmetry operations used in ECPInt.
 ECPInt:  NShTT=    9591 NPrTT=   29644 LenC2=    9183 LenP2D=   22017.
 LDataN:  DoStor=T MaxTD1= 6 Len=  172
 NBasis=   352 RedAO= T EigKep=  3.14D-05  NBF=   352
 NBsUse=   352 1.00D-06 EigRej= -1.00D+00 NBFU=   352
 The nuclear repulsion energy is now       458.8405591959 hartrees.
 Initial guess from the checkpoint file:  "checkpoint.chk"
 B after Tr=     0.045167   -0.538541    0.069984
         Rot=    0.996926    0.072005    0.018220    0.024949 Ang=   8.99 deg.
 ExpMin= 9.52D-02 ExpMax= 2.70D+04 ExpMxC= 9.22D+02 IAcc=2 IRadAn=         4 AccDes= 0.00D+00
 Harris functional with IExCor=  402 and IRadAn=       4 diagonalized for initial guess.
 HarFok:  IExCor=  402 AccDes= 0.00D+00 IRadAn=         4 IDoV= 1 UseB2=F ITyADJ=14
 ICtDFT=  3500011 ScaDFX=  1.000000  1.000000  1.000000  1.000000
 FoFCou: FMM=F IPFlag=           0 FMFlag=      100000 FMFlg1=           0
         NFxFlg=           0 DoJE=T BraDBF=F KetDBF=T FulRan=T
         wScrn=  0.000000 ICntrl=       500 IOpCl=  0 I1Cent=   200000004 NGrid=           0
         NMat0=    1 NMatS0=      1 NMatT0=    0 NMatD0=    1 NMtDS0=    0 NMtDT0=    0
 Symmetry not used in FoFCou.
 Requested convergence on RMS density matrix=1.00D-08 within 128 cycles.
 Requested convergence on MAX density matrix=1.00D-06.
 Requested convergence on             energy=1.00D-06.
 No special actions if energy rises.
 Integral accuracy reduced to 1.0D-05 until final iterations.
 Initial convergence to 1.0D-05 achieved.  Increase integral accuracy.
 SCF Done:  E(RB3LYP) =  -439.157561919     A.U. after   14 cycles
            NFock= 14  Conv=0.60D-08     -V/T= 2.0049
   1 Symmetry operations used in ECPInt.
 ECPInt:  NShTT=    9591 NPrTT=   29644 LenC2=    9183 LenP2D=   22017.
 LDataN:  DoStor=T MaxTD1= 7 Len=  274
 Calling FoFJK, ICntrl=      2127 FMM=F ISym2X=0 I1Cent= 0 IOpClX= 0 NMat=1 NMatS=1 NMatT=0.
 -------------------------------------------------------------------
 Center     Atomic                   Forces (Hartrees/Bohr)
 Number     Number              X              Y              Z
 -------------------------------------------------------------------
      1        1           0.003007850   -0.000747697   -0.000475847
      2        7           0.000062395   -0.000695010   -0.000389913
      3        6          -0.002535836   -0.000152219   -0.001249932
      4        6          -0.001029703    0.002322895   -0.002311030
      5        1           0.000054605   -0.000024106    0.000193822
      6        6          -0.002310362    0.001718191    0.001302936
      7        6           0.001193474   -0.002553134    0.000459811
      8        6           0.000310290    0.002509802    0.002087396
      9        1           0.000106602    0.000281133   -0.000121382
     10        1           0.001076094   -0.002551031   -0.000377349
     11        1           0.000942188   -0.000346722    0.000163738
     12        6          -0.001998750    0.001774898    0.000056916
     13        1           0.000439659    0.000723482   -0.000229846
     14        6           0.001759977   -0.002302944    0.001131026
     15        1          -0.000285671    0.000160813   -0.000172771
     16        6          -0.002226441    0.001791782   -0.004541534
     17        8           0.001433631   -0.001910132    0.004473959
 -------------------------------------------------------------------
 Cartesian Forces:  Max     0.004541534 RMS     0.001659300
 -----------------------------------------------------------------------------------------------
                       Internal Coordinate Forces (Hartree/Bohr or radian)
  Cent   Atom   N1       Length/X         N2         Alpha/Y        N3         Beta/Z          J
 -----------------------------------------------------------------------------------------------
      1  H 
      2  N        1   0.000476(     1)
      3  C        2  -0.003714(     2)      1   0.011897(    17)
      4  C        2  -0.000952(     3)      1   0.013672(    18)      3  -0.003181(    32)     0
      5  H        3  -0.000023(     4)      2   0.000407(    19)      1  -0.005144(    33)     0
      6  C        3   0.001840(     5)      2  -0.004149(    20)      5  -0.005100(    34)     0
      7  C        4   0.001156(     6)      2  -0.006540(    21)      1  -0.009944(    35)     0
      8  C        4  -0.001619(     7)      2   0.003148(    22)      7  -0.002201(    36)     0
      9  H        6  -0.000034(     8)      3  -0.000319(    23)      2   0.000466(    37)     0
     10  H        8  -0.000104(     9)      4  -0.001671(    24)      2  -0.000142(    38)     0
     11  H        7  -0.000452(    10)      4   0.001739(    25)      2   0.000515(    39)     0
     12  C        8   0.001017(    11)      4   0.000482(    26)     10  -0.005154(    40)     0
     13  H       12  -0.000081(    12)      8  -0.001242(    27)      4  -0.006093(    41)     0
     14  C       12   0.000980(    13)      8   0.000120(    28)     13  -0.004936(    42)     0
     15  H       14   0.000281(    14)     12  -0.000471(    29)      8  -0.001011(    43)     0
     16  C       14  -0.000344(    15)     12   0.002232(    30)     15  -0.000873(    44)     0
     17  O       16   0.005060(    16)     14  -0.000538(    31)     12   0.000044(    45)     0
 -----------------------------------------------------------------------------------------------
 Internal  Forces:  Max     0.013671562 RMS     0.003996306

 GradGradGradGradGradGradGradGradGradGradGradGradGradGradGradGradGradGrad
 Berny optimization.
 Search for a local minimum.
 Step number   2 out of a maximum of   55
 All quantities printed in internal units (Hartrees-Bohrs-Radians)
 Update second derivatives using D2CorN and points    2    1
 ITU=  0  0
     Eigenvalues ---   -0.50025  -0.07229   0.02242   0.03315   0.04128
     Eigenvalues ---    0.04724   0.05333   0.06935   0.07300   0.09697
     Eigenvalues ---    0.11237   0.13232   0.15165   0.18557   0.18769
     Eigenvalues ---    0.19217   0.20683   0.21794   0.24116   0.25805
     Eigenvalues ---    0.30507   0.32716   0.35245   0.35317   0.35623
     Eigenvalues ---    0.36342   0.36422   0.36549   0.37515   0.39318
     Eigenvalues ---    0.41964   0.46773   0.48149   0.48694   0.49451
     Eigenvalues ---    0.50392   0.51715   0.54496   0.55543   0.62212
     Eigenvalues ---    0.65378   1.16679   1.27549   1.85542  20.97613
 RFO step:  Lambda=-5.00269568D-01 EMin=-5.00253068D-01
 I=     1 Eig=   -5.00D-01 Dot1=  7.18D-04
 I=     1 Stepn=  2.50D-01 RXN=   2.50D-01 EDone=F
 I=     2 Eig=   -7.23D-02 Dot1=  1.49D-05
 I=     2 Stepn=  1.25D-01 RXN=   2.80D-01 EDone=F
 Mixed    2 eigenvectors in step.  Raw Step.Grad=  7.33D-04.
 RFO eigenvector is Hessian eigenvector with negative curvature.
 Taking step of  2.80D-01 in eigenvector direction(s).  Step.Grad=  2.20D-04.
 Quartic linear search produced a step of -0.82556.
 Maximum step size (   0.100) exceeded in Quadratic search.
    -- Step size scaled by   0.358
 Variable       Old X    -DE/DX   Delta X   Delta X   Delta X     New X
                                 (Linear)    (Quad)   (Total)
    R2        1.89969   0.00048  -0.00000   0.00001   0.00001   1.89970
    R3        2.57459  -0.00371   0.00098  -0.00194  -0.00096   2.57363
    R4        2.60982  -0.00095   0.00152  -0.00356  -0.00204   2.60778
    R5        2.03427  -0.00002   0.00000  -0.00001  -0.00001   2.03426
    R6        2.60242   0.00184  -0.00088   0.00242   0.00154   2.60396
    R7        2.62727   0.00116  -0.00011  -0.00044  -0.00055   2.62672
    R8        2.72494  -0.00162   0.00003  -0.00024  -0.00021   2.72473
    R9        2.03551  -0.00003   0.00000  -0.00002  -0.00002   2.03549
   R10        2.05280  -0.00010  -0.00001   0.00010   0.00009   2.05288
   R11        2.03240  -0.00045  -0.00001  -0.00010  -0.00011   2.03229
   R12        2.54646   0.00102   0.00009   0.00019   0.00028   2.54674
   R13        2.04680  -0.00008  -0.00004   0.00004   0.00000   2.04681
   R14        2.75074   0.00098   0.00004  -0.00039  -0.00035   2.75039
   R15        2.05162   0.00028   0.00002  -0.00010  -0.00008   2.05154
   R16        2.49193  -0.00034   0.00034  -0.00031   0.00003   2.49197
   R17        2.19285   0.00506  -0.00002   0.00016   0.00014   2.19299
    A3        2.19999   0.01190  -0.00911   0.02735   0.01824   2.21824
    A4        2.14563   0.01367   0.01304  -0.03455  -0.02151   2.12412
    A5        2.12053   0.00041  -0.00048   0.00133   0.00085   2.12137
    A6        1.87464  -0.00415   0.00328  -0.00673  -0.00345   1.87119
    A7        1.84991  -0.00654   0.00077  -0.00005   0.00072   1.85063
    A8        2.06070   0.00315   0.01726  -0.03443  -0.01717   2.04353
    A9        2.19402  -0.00032   0.00020  -0.00054  -0.00034   2.19367
   A10        1.98808  -0.00167   0.00257  -0.01174  -0.00917   1.97891
   A11        2.20257   0.00174  -0.00014   0.00005  -0.00009   2.20248
   A12        2.30666   0.00048  -0.01561   0.04409   0.02848   2.33514
   A13        2.02305  -0.00124   0.00313  -0.01250  -0.00937   2.01368
   A14        2.31050   0.00012  -0.01359   0.03730   0.02372   2.33421
   A15        2.04811  -0.00047   0.00553  -0.01329  -0.00776   2.04035
   A16        2.29418   0.00223  -0.01609   0.02715   0.01106   2.30523
   A17        3.05709  -0.00054   0.01004  -0.01543  -0.00539   3.05170
    D4       -3.13894  -0.00318   0.01151  -0.01586  -0.00435  -3.14328
    D5       -0.00762  -0.00514   0.00925   0.00973   0.01898   0.01136
    D6       -3.14244  -0.00510   0.00517   0.00429   0.00946  -3.13298
    D7        3.16307  -0.00994  -0.02512  -0.02577  -0.05089   3.11218
    D8        3.10513  -0.00220  -0.01782  -0.01728  -0.03510   3.07003
    D9       -3.13187   0.00047   0.00055   0.00000   0.00056  -3.13132
   D10       -0.22710  -0.00014  -0.03576  -0.01029  -0.04604  -0.27315
   D11        3.08470   0.00052   0.00179   0.00384   0.00562   3.09032
   D12       -3.09592  -0.00515  -0.02661  -0.00509  -0.03170  -3.12762
   D13        3.10411  -0.00609  -0.02764  -0.00716  -0.03480   3.06931
   D14        3.16693  -0.00494  -0.02961  -0.01239  -0.04200   3.12493
   D15        2.93052  -0.00101  -0.01406  -0.00457  -0.01863   2.91189
   D16        3.05184  -0.00087  -0.01967  -0.01776  -0.03744   3.01440
   D17        3.08558   0.00004   0.00225   0.00256   0.00481   3.09039
         Item               Value     Threshold  Converged?
 Maximum Force            0.013672     0.000450     NO 
 RMS     Force            0.003996     0.000300     NO 
 Maximum Displacement     0.050886     0.001800     NO 
 RMS     Displacement     0.018295     0.001200     NO 
 Predicted change in Energy=-2.367584D-03
 GradGradGradGradGradGradGradGradGradGradGradGradGradGradGradGradGradGrad

 ---------------------------------------------------------------------------------------------------
                            Z-MATRIX (ANGSTROMS AND DEGREES)
   CD    Cent   Atom    N1       Length/X        N2       Alpha/Y        N3        Beta/Z          J
 ---------------------------------------------------------------------------------------------------
      1      1  H 
      2      2  N        1   1.005277(     1)
      3      3  C        2   1.361906(     2)      1  127.096(    17)
      4      4  C        2   1.379980(     3)      1  121.703(    18)      3 -180.097(    32)      0
      5      5  H        3   1.076483(     4)      2  121.546(    19)      1    0.651(    33)      0
      6      6  C        3   1.377956(     5)      2  107.211(    20)      5 -179.507(    34)      0
      7      7  C        4   1.389998(     6)      2  106.033(    21)      1  178.315(    35)      0
      8      8  C        4   1.441867(     7)      2  117.086(    22)      7  175.900(    36)      0
      9      9  H        6   1.077134(     8)      3  125.688(    23)      2 -179.411(    37)      0
     10     10  H        8   1.086340(     9)      4  113.383(    24)      2  -15.650(    38)      0
     11     11  H        7   1.075439(    10)      4  126.193(    25)      2  177.062(    39)      0
     12     12  C        8   1.347677(    11)      4  133.794(    26)     10 -179.199(    40)      0
     13     13  H       12   1.083125(    12)      8  115.375(    27)      4  175.858(    41)      0
     14     14  C       12   1.455445(    13)      8  133.741(    28)     13  179.045(    42)      0
     15     15  H       14   1.085627(    14)     12  116.904(    29)      8  166.839(    43)      0
     16     16  C       14   1.318691(    15)     12  132.080(    30)     15  172.713(    44)      0
     17     17  O       16   1.160479(    16)     14  174.850(    31)     12  177.067(    45)      0
 ---------------------------------------------------------------------------------------------------
                         Z-Matrix orientation:                         
 ---------------------------------------------------------------------
 Center     Atomic      Atomic             Coordinates (Angstroms)
 Number     Number       Type             X           Y           Z
 ---------------------------------------------------------------------
      1          1           0        0.000000    0.000000    0.000000
      2          7           0        0.000000    0.000000    1.005277
      3          6           0        1.086297    0.000000    1.826706
      4          6           0       -1.174064    0.001985    1.730477
      5          1           0        2.088811    0.010423    1.434695
      6          6           0        0.617784   -0.026288    3.122302
      7          6           0       -0.799011   -0.037935    3.068324
      8          6           0       -2.403579    0.133471    0.988867
      9          1           0        1.226645   -0.024117    4.010841
     10          1           0       -2.257737    0.483605   -0.029107
     11          1           0       -1.461393   -0.003264    3.914858
     12          6           0       -3.701010   -0.071829    1.290129
     13          1           0       -4.405687    0.190474    0.510522
     14          6           0       -4.391723   -0.599154    2.457676
     15          1           0       -5.465459   -0.445787    2.504096
     16          6           0       -3.986097   -1.359251    3.456008
     17          8           0       -3.724648   -2.017739    4.375110
 ---------------------------------------------------------------------
                    Distance matrix (angstroms):
                    1          2          3          4          5
     1  H    0.000000
     2  N    1.005277   0.000000
     3  C    2.125300   1.361906   0.000000
     4  C    2.091167   1.379980   2.262410   0.000000
     5  H    2.534086   2.132520   1.076483   3.276265   0.000000
     6  C    3.182942   2.205480   1.377956   2.269074   2.239037
     7  C    3.170879   2.212696   2.257752   1.389998   3.318223
     8  C    2.602473   2.407338   3.591522   1.441867   4.516135
     9  H    4.194292   3.246329   2.188772   3.311215   2.716809
    10  H    2.309133   2.530059   3.854929   2.121895   4.610759
    11  H    4.178731   3.255970   3.294102   2.203204   4.330744
    12  C    3.920086   3.712651   4.817820   2.566089   5.792210
    13  H    4.439255   4.437470   5.650709   3.459364   6.562394
    14  C    5.068174   4.664299   5.546694   3.353135   6.589037
    15  H    6.028305   5.684754   6.601750   4.383499   7.643216
    16  C    5.447983   4.872639   5.498306   3.569026   6.547230
    17  O    6.089816   5.412952   5.806102   4.192714   6.823180
                    6          7          8          9         10
     6  C    0.000000
     7  C    1.417871   0.000000
     8  C    3.702122   2.632141   0.000000
     9  H    1.077134   2.234236   4.726065   0.000000
    10  H    4.296509   3.463230   1.086340   5.359093   0.000000
    11  H    2.225230   1.075439   3.076985   2.689832   4.052908
    12  C    4.691579   3.403634   1.347677   5.629062   2.032715
    13  H    5.666007   4.427486   2.059247   6.634866   2.234013
    14  C    5.085771   3.687199   2.578150   5.857393   3.451138
    15  H    6.128949   4.718097   3.465049   6.872579   4.191702
    16  C    4.804568   3.471842   3.289280   5.409538   4.304576
    17  O    4.938838   3.766519   4.223692   5.350002   5.273109
                   11         12         13         14         15
    11  H    0.000000
    12  C    3.451056   0.000000
    13  H    4.505097   1.083125   0.000000
    14  C    3.326455   1.455445   2.101217   0.000000
    15  H    4.268328   2.174129   2.345694   1.085627   0.000000
    16  C    2.902305   2.535697   3.354637   1.318691   1.982187
    17  O    3.064681   3.647497   4.502784   2.476677   3.000359
                   16         17
    16  C    0.000000
    17  O    1.160479   0.000000
 Symmetry turned off by external request.
 Stoichiometry    C8H7NO
 Framework group  C1[X(C8H7NO)]
 Deg. of freedom    45
 Full point group                 C1      NOp   1
 Rotational constants (GHZ):           2.5344908           0.8543689           0.6608576
 Standard basis: def2TZVP (5D, 7F)
 The following finite field(s) will be applied:
 An electric field of             -0.0041 -0.0007  0.0028
   352 basis functions,   566 primitive gaussians,   402 cartesian basis functions
    35 alpha electrons       35 beta electrons
       nuclear repulsion energy       452.7920594160 Hartrees.
 NAtoms=   17 NActive=   17 NUniq=   17 SFac= 1.00D+00 NAtFMM=   60 NAOKFM=F Big=F
 Integral buffers will be    131072 words long.
 Raffenetti 2 integral format.
 Two-electron integral symmetry is turned off.
 One-electron integrals computed using PRISM.
   1 Symmetry operations used in ECPInt.
 ECPInt:  NShTT=    9591 NPrTT=   29644 LenC2=    9149 LenP2D=   21899.
 LDataN:  DoStor=T MaxTD1= 6 Len=  172
 NBasis=   352 RedAO= T EigKep=  3.41D-05  NBF=   352
 NBsUse=   352 1.00D-06 EigRej= -1.00D+00 NBFU=   352
 The nuclear repulsion energy is now       454.6745961382 hartrees.
 Lowest energy guess from the checkpoint file:  "checkpoint.chk"
 B after Tr=     0.152746    0.047013    0.063619
         Rot=    0.998417   -0.015709    0.048218    0.024324 Ang=  -6.45 deg.
 B after Tr=     0.105812    0.595182    0.087875
         Rot=    0.995708   -0.086480    0.032466   -0.005702 Ang= -10.62 deg.
 Requested convergence on RMS density matrix=1.00D-08 within 128 cycles.
 Requested convergence on MAX density matrix=1.00D-06.
 Requested convergence on             energy=1.00D-06.
 No special actions if energy rises.
 Integral accuracy reduced to 1.0D-05 until final iterations.
 Initial convergence to 1.0D-05 achieved.  Increase integral accuracy.
 SCF Done:  E(RB3LYP) =  -439.156023788     A.U. after   13 cycles
            NFock= 13  Conv=0.76D-08     -V/T= 2.0050
   1 Symmetry operations used in ECPInt.
 ECPInt:  NShTT=    9591 NPrTT=   29644 LenC2=    9149 LenP2D=   21899.
 LDataN:  DoStor=T MaxTD1= 7 Len=  274
 Calling FoFJK, ICntrl=      2127 FMM=F ISym2X=0 I1Cent= 0 IOpClX= 0 NMat=1 NMatS=1 NMatT=0.
 -------------------------------------------------------------------
 Center     Atomic                   Forces (Hartrees/Bohr)
 Number     Number              X              Y              Z
 -------------------------------------------------------------------
      1        1           0.005272930    0.000552856   -0.000519162
      2        7          -0.001209144    0.003906032   -0.000985080
      3        6          -0.002948765   -0.002536628   -0.000812956
      4        6          -0.000019642   -0.002988423   -0.001382199
      5        1           0.000063865   -0.000412828    0.000361873
      6        6          -0.002950770   -0.000468189    0.001160555
      7        6           0.001840940    0.001934776   -0.000254682
      8        6          -0.002775385   -0.000947765    0.001036585
      9        1           0.000179175   -0.000138252   -0.000104887
     10        1           0.001519890    0.000210317    0.000086335
     11        1          -0.001320368   -0.000561157    0.000850648
     12        6          -0.001814993    0.000073914   -0.000821743
     13        1           0.000603230    0.000343370   -0.000867486
     14        6           0.001827507   -0.001339955    0.002799480
     15        1          -0.000629885    0.000224556    0.000047987
     16        6          -0.000197151    0.004512536   -0.003967169
     17        8           0.002558567   -0.002365159    0.003371900
 -------------------------------------------------------------------
 Cartesian Forces:  Max     0.005272930 RMS     0.001897569
 -----------------------------------------------------------------------------------------------
                       Internal Coordinate Forces (Hartree/Bohr or radian)
  Cent   Atom   N1       Length/X         N2         Alpha/Y        N3         Beta/Z          J
 -----------------------------------------------------------------------------------------------
      1  H 
      2  N        1   0.000519(     1)
      3  C        2  -0.004147(     2)      1   0.016184(    17)
      4  C        2  -0.000884(     3)      1   0.022647(    18)      3   0.006507(    32)     0
      5  H        3  -0.000076(     4)      2   0.000738(    19)      1   0.000761(    33)     0
      6  C        3   0.001946(     5)      2  -0.005445(    20)      5   0.001472(    34)     0
      7  C        4   0.000675(     6)      2   0.000153(    21)      1   0.010449(    35)     0
      8  C        4  -0.001733(     7)      2   0.018394(    22)      7   0.007321(    36)     0
      9  H        6   0.000014(     8)      3  -0.000414(    23)      2  -0.000237(    37)     0
     10  H        8   0.000191(     9)      4  -0.003125(    24)      2   0.006191(    38)     0
     11  H        7   0.001465(    10)      4  -0.000973(    25)      2   0.001047(    39)     0
     12  C        8  -0.002355(    11)      4  -0.020625(    26)     10   0.006366(    40)     0
     13  H       12   0.000315(    12)      8  -0.002179(    27)      4   0.006775(    41)     0
     14  C       12  -0.000256(    13)      8  -0.020963(    28)     13   0.006705(    42)     0
     15  H       14   0.000657(    14)     12  -0.000095(    29)      8   0.004199(    43)     0
     16  C       14  -0.000962(    15)     12  -0.009105(    30)     15   0.004431(    44)     0
     17  O       16   0.004589(    16)     14   0.003237(    31)     12  -0.000103(    45)     0
 -----------------------------------------------------------------------------------------------
 Internal  Forces:  Max     0.022646624 RMS     0.007585086

 GradGradGradGradGradGradGradGradGradGradGradGradGradGradGradGradGradGrad
 Berny optimization.
 Search for a local minimum.
 Step number   3 out of a maximum of   55
 All quantities printed in internal units (Hartrees-Bohrs-Radians)
 Update second derivatives using D2CorN and points    3    2    1
 ITU=  0  0  0
 Energy rises -- skip Quadratic search.
 Quartic linear search produced a step of -0.82556.
 Variable       Old X    -DE/DX   Delta X   Delta X   Delta X     New X
                                 (Linear)    (Quad)   (Total)
    R2        1.89969   0.00048  -0.00000   0.00000  -0.00000   1.89969
    R3        2.57459  -0.00371   0.00098   0.00000   0.00098   2.57557
    R4        2.60982  -0.00095   0.00152   0.00000   0.00152   2.61134
    R5        2.03427  -0.00002   0.00000   0.00000   0.00000   2.03427
    R6        2.60242   0.00184  -0.00088   0.00000  -0.00088   2.60154
    R7        2.62727   0.00116  -0.00011   0.00000  -0.00011   2.62716
    R8        2.72494  -0.00162   0.00003   0.00000   0.00003   2.72497
    R9        2.03551  -0.00003   0.00000   0.00000   0.00000   2.03551
   R10        2.05280  -0.00010  -0.00001   0.00000  -0.00001   2.05278
   R11        2.03240  -0.00045  -0.00001   0.00000  -0.00001   2.03239
   R12        2.54646   0.00102   0.00009   0.00000   0.00009   2.54655
   R13        2.04680  -0.00008  -0.00004   0.00000  -0.00004   2.04676
   R14        2.75074   0.00098   0.00004   0.00000   0.00004   2.75078
   R15        2.05162   0.00028   0.00002   0.00000   0.00002   2.05164
   R16        2.49193  -0.00034   0.00034   0.00000   0.00034   2.49228
   R17        2.19285   0.00506  -0.00002   0.00000  -0.00002   2.19283
    A3        2.19999   0.01190  -0.00911   0.00000  -0.00911   2.19088
    A4        2.14563   0.01367   0.01304   0.00000   0.01304   2.15867
    A5        2.12053   0.00041  -0.00048   0.00000  -0.00048   2.12005
    A6        1.87464  -0.00415   0.00328   0.00000   0.00328   1.87792
    A7        1.84991  -0.00654   0.00077   0.00000   0.00077   1.85068
    A8        2.06070   0.00315   0.01726   0.00000   0.01726   2.07796
    A9        2.19402  -0.00032   0.00020   0.00000   0.00020   2.19421
   A10        1.98808  -0.00167   0.00257   0.00000   0.00257   1.99066
   A11        2.20257   0.00174  -0.00014   0.00000  -0.00014   2.20243
   A12        2.30666   0.00048  -0.01561   0.00000  -0.01561   2.29105
   A13        2.02305  -0.00124   0.00313   0.00000   0.00313   2.02619
   A14        2.31050   0.00012  -0.01359   0.00000  -0.01359   2.29691
   A15        2.04811  -0.00047   0.00553   0.00000   0.00553   2.05364
   A16        2.29418   0.00223  -0.01609   0.00000  -0.01609   2.27808
   A17        3.05709  -0.00054   0.01004   0.00000   0.01004   3.06713
    D4       -3.13894  -0.00318   0.01151   0.00000   0.01151  -3.12742
    D5       -0.00762  -0.00514   0.00925   0.00000   0.00925   0.00163
    D6       -3.14244  -0.00510   0.00517   0.00000   0.00517  -3.13727
    D7        3.16307  -0.00994  -0.02512   0.00000  -0.02512   3.13795
    D8        3.10513  -0.00220  -0.01782   0.00000  -0.01782   3.08731
    D9       -3.13187   0.00047   0.00055   0.00000   0.00055  -3.13132
   D10       -0.22710  -0.00014  -0.03576   0.00000  -0.03576  -0.26286
   D11        3.08470   0.00052   0.00179   0.00000   0.00179   3.08649
   D12       -3.09592  -0.00515  -0.02661   0.00000  -0.02661  -3.12253
   D13        3.10411  -0.00609  -0.02764   0.00000  -0.02764   3.07647
   D14        3.16693  -0.00494  -0.02961   0.00000  -0.02961   3.13731
   D15        2.93052  -0.00101  -0.01406   0.00000  -0.01406   2.91646
   D16        3.05184  -0.00087  -0.01967   0.00000  -0.01967   3.03217
   D17        3.08558   0.00004   0.00225   0.00000   0.00225   3.08784
         Item               Value     Threshold  Converged?
 Maximum Force            0.022647     0.000450     NO 
 RMS     Force            0.007585     0.000300     NO 
 Maximum Displacement     0.035758     0.001800     NO 
 RMS     Displacement     0.012307     0.001200     NO 
 Predicted change in Energy=-6.721825D-07
 GradGradGradGradGradGradGradGradGradGradGradGradGradGradGradGradGradGrad

 ---------------------------------------------------------------------------------------------------
                            Z-MATRIX (ANGSTROMS AND DEGREES)
   CD    Cent   Atom    N1       Length/X        N2       Alpha/Y        N3        Beta/Z          J
 ---------------------------------------------------------------------------------------------------
      1      1  H 
      2      2  N        1   1.005275(     1)
      3      3  C        2   1.362933(     2)      1  125.528(    17)
      4      4  C        2   1.381863(     3)      1  123.683(    18)      3 -179.188(    32)      0
      5      5  H        3   1.076489(     4)      2  121.470(    19)      1    0.093(    33)      0
      6      6  C        3   1.376675(     5)      2  107.597(    20)      5 -179.752(    34)      0
      7      7  C        4   1.390231(     6)      2  106.036(    21)      1  179.791(    35)      0
      8      8  C        4   1.441994(     7)      2  119.058(    22)      7  176.890(    36)      0
      9      9  H        6   1.077146(     8)      3  125.719(    23)      2 -179.411(    37)      0
     10     10  H        8   1.086286(     9)      4  114.056(    24)      2  -15.061(    38)      0
     11     11  H        7   1.075492(    10)      4  126.190(    25)      2  176.843(    39)      0
     12     12  C        8   1.347576(    11)      4  131.268(    26)     10 -178.908(    40)      0
     13     13  H       12   1.083101(    12)      8  116.092(    27)      4  176.269(    41)      0
     14     14  C       12   1.455651(    13)      8  131.603(    28)     13  179.755(    42)      0
     15     15  H       14   1.085681(    14)     12  117.665(    29)      8  167.101(    43)      0
     16     16  C       14   1.318855(    15)     12  130.525(    30)     15  173.730(    44)      0
     17     17  O       16   1.160395(    16)     14  175.734(    31)     12  176.920(    45)      0
 ---------------------------------------------------------------------------------------------------
                         Z-Matrix orientation:                         
 ---------------------------------------------------------------------
 Center     Atomic      Atomic             Coordinates (Angstroms)
 Number     Number       Type             X           Y           Z
 ---------------------------------------------------------------------
      1          1           0        0.000000    0.000000    0.000000
      2          7           0        0.000000    0.000000    1.005275
      3          6           0        1.109192    0.000000    1.797284
      4          6           0       -1.149764   -0.016295    1.771643
      5          1           0        2.100092    0.001494    1.376636
      6          6           0        0.685355   -0.007809    3.107069
      7          6           0       -0.728308   -0.015191    3.096451
      8          6           0       -2.431348    0.038525    1.112943
      9          1           0        1.323715   -0.000820    3.974645
     10          1           0       -2.381540    0.345922    0.072249
     11          1           0       -1.362197    0.022286    3.964473
     12          6           0       -3.675903   -0.205887    1.568253
     13          1           0       -4.482821   -0.027885    0.868034
     14          6           0       -4.157561   -0.681446    2.856960
     15          1           0       -5.221023   -0.598953    3.059310
     16          6           0       -3.527715   -1.317143    3.825755
     17          8           0       -3.046651   -1.872379    4.723979
 ---------------------------------------------------------------------
                    Distance matrix (angstroms):
                    1          2          3          4          5
     1  H    0.000000
     2  N    1.005275   0.000000
     3  C    2.111999   1.362933   0.000000
     4  C    2.112095   1.381863   2.259161   0.000000
     5  H    2.511078   2.132674   1.076489   3.273822   0.000000
     6  C    3.181768   2.210726   1.376675   2.269602   2.235165
     7  C    3.180986   2.214426   2.250437   1.390231   3.310270
     8  C    2.674243   2.434035   3.606276   1.441994   4.539256
     9  H    4.189275   3.251059   2.187903   3.312335   2.711534
    10  H    2.407616   2.581072   3.909043   2.129886   4.680286
    11  H    4.192031   3.257750   3.287091   2.203434   4.322590
    12  C    4.001758   3.724459   4.794995   2.541395   5.782891
    13  H    4.566174   4.485008   5.668765   3.453391   6.602596
    14  C    5.090374   4.602002   5.415346   3.266065   6.466528
    15  H    6.080889   5.642419   6.482521   4.309609   7.535957
    16  C    5.368057   4.704758   5.229767   3.400915   6.277674
    17  O    5.924852   5.159133   5.416861   3.969825   6.419118
                    6          7          8          9         10
     6  C    0.000000
     7  C    1.413722   0.000000
     8  C    3.700340   2.614868   0.000000
     9  H    1.077146   2.232091   4.721376   0.000000
    10  H    4.329099   3.465455   1.086286   5.392388   0.000000
    11  H    2.220027   1.075492   3.045418   2.686032   4.036485
    12  C    4.629012   3.325668   1.347576   5.552383   2.053751
    13  H    5.632381   4.366048   2.067107   6.585410   2.277803
    14  C    4.895934   3.501575   2.557297   5.635323   3.458952
    15  H    5.936079   4.530635   3.460783   6.635451   4.228237
    16  C    4.469991   3.172324   3.224780   5.029040   4.262430
    17  O    4.474247   3.387139   4.131554   4.812935   5.196328
                   11         12         13         14         15
    11  H    0.000000
    12  C    3.338737   0.000000
    13  H    4.396447   1.083101   0.000000
    14  C    3.088022   1.455651   2.118670   0.000000
    15  H    4.011956   2.182923   2.381755   1.085681   0.000000
    16  C    2.550054   2.520549   3.364896   1.318855   1.992618
    17  O    2.646505   3.623778   4.509219   2.477539   3.020038
                   16         17
    16  C    0.000000
    17  O    1.160395   0.000000
 Symmetry turned off by external request.
 Stoichiometry    C8H7NO
 Framework group  C1[X(C8H7NO)]
 Deg. of freedom    45
 Full point group                 C1      NOp   1
 Rotational constants (GHZ):           2.4484970           0.9475148           0.7045964
 Standard basis: def2TZVP (5D, 7F)
 The following finite field(s) will be applied:
 An electric field of             -0.0041 -0.0007  0.0028
   352 basis functions,   566 primitive gaussians,   402 cartesian basis functions
    35 alpha electrons       35 beta electrons
       nuclear repulsion energy       458.4084789570 Hartrees.
 NAtoms=   17 NActive=   17 NUniq=   17 SFac= 1.00D+00 NAtFMM=   60 NAOKFM=F Big=F
 Integral buffers will be    131072 words long.
 Raffenetti 2 integral format.
 Two-electron integral symmetry is turned off.
 One-electron integrals computed using PRISM.
   1 Symmetry operations used in ECPInt.
 ECPInt:  NShTT=    9591 NPrTT=   29644 LenC2=    9202 LenP2D=   22067.
 LDataN:  DoStor=T MaxTD1= 6 Len=  172
 NBasis=   352 RedAO= T EigKep=  3.19D-05  NBF=   352
 NBsUse=   352 1.00D-06 EigRej= -1.00D+00 NBFU=   352
 The nuclear repulsion energy is now       460.2647335954 hartrees.
 Lowest energy guess from the checkpoint file:  "checkpoint.chk"
 B after Tr=     0.009134   -0.095651    0.006157
         Rot=    0.999906    0.012705    0.002974    0.004241 Ang=   1.57 deg.
 B after Tr=    -0.147174   -0.152840   -0.040925
         Rot=    0.998371    0.028216   -0.045712   -0.019209 Ang=   6.54 deg.
 Requested convergence on RMS density matrix=1.00D-08 within 128 cycles.
 Requested convergence on MAX density matrix=1.00D-06.
 Requested convergence on             energy=1.00D-06.
 No special actions if energy rises.
 Integral accuracy reduced to 1.0D-05 until final iterations.
 Initial convergence to 1.0D-05 achieved.  Increase integral accuracy.
 SCF Done:  E(RB3LYP) =  -439.157925235     A.U. after   12 cycles
            NFock= 12  Conv=0.38D-08     -V/T= 2.0049
   1 Symmetry operations used in ECPInt.
 ECPInt:  NShTT=    9591 NPrTT=   29644 LenC2=    9202 LenP2D=   22067.
 LDataN:  DoStor=T MaxTD1= 7 Len=  274
 Calling FoFJK, ICntrl=      2127 FMM=F ISym2X=0 I1Cent= 0 IOpClX= 0 NMat=1 NMatS=1 NMatT=0.
 -------------------------------------------------------------------
 Center     Atomic                   Forces (Hartrees/Bohr)
 Number     Number              X              Y              Z
 -------------------------------------------------------------------
      1        1           0.001775697   -0.000291671   -0.000435207
      2        7          -0.000195333    0.000475243    0.000721400
      3        6          -0.001410249   -0.000434720   -0.001266325
      4        6          -0.000700385    0.000443190   -0.001333184
      5        1           0.000042983    0.000057290    0.000015070
      6        6          -0.001128111    0.000280854    0.000830805
      7        6           0.000729934   -0.000646902    0.000504920
      8        6           0.000979999    0.000423263    0.001065027
      9        1           0.000106422    0.000126446   -0.000149485
     10        1           0.000175034   -0.000574027   -0.000050462
     11        1           0.000156423    0.000047857    0.000114773
     12        6          -0.000643161    0.000982290   -0.001070141
     13        1           0.000048672    0.000045587   -0.000101519
     14        6           0.000570407   -0.000950155    0.001211690
     15        1          -0.000057028    0.000079567   -0.000035657
     16        6          -0.001264141    0.001483550   -0.002775058
     17        8           0.000812835   -0.001547662    0.002753354
 -------------------------------------------------------------------
 Cartesian Forces:  Max     0.002775058 RMS     0.000926936
 -----------------------------------------------------------------------------------------------
                       Internal Coordinate Forces (Hartree/Bohr or radian)
  Cent   Atom   N1       Length/X         N2         Alpha/Y        N3         Beta/Z          J
 -----------------------------------------------------------------------------------------------
      1  H 
      2  N        1   0.000435(     1)
      3  C        2  -0.002275(     2)      1   0.004072(    17)
      4  C        2  -0.000513(     3)      1   0.003651(    18)      3  -0.001107(    32)     0
      5  H        3   0.000034(     4)      2   0.000062(    19)      1  -0.001010(    33)     0
      6  C        3   0.000960(     5)      2  -0.001625(    20)      5  -0.001109(    34)     0
      7  C        4   0.000859(     6)      2  -0.002100(    21)      1  -0.002024(    35)     0
      8  C        4  -0.001011(     7)      2  -0.000285(    22)      7  -0.000506(    36)     0
      9  H        6  -0.000057(     8)      3  -0.000358(    23)      2   0.000206(    37)     0
     10  H        8  -0.000106(     9)      4  -0.000250(    24)      2   0.000549(    38)     0
     11  H        7   0.000002(    10)      4   0.000392(    25)      2  -0.000086(    39)     0
     12  C        8   0.000469(    11)      4   0.001823(    26)     10  -0.000539(    40)     0
     13  H       12   0.000037(    12)      8  -0.000236(    27)      4  -0.001008(    41)     0
     14  C       12   0.001307(    13)      8   0.000977(    28)     13  -0.000995(    42)     0
     15  H       14   0.000055(    14)     12  -0.000149(    29)      8  -0.000462(    43)     0
     16  C       14  -0.000201(    15)     12   0.002201(    30)     15  -0.000370(    44)     0
     17  O       16   0.003209(    16)     14  -0.001273(    31)     12   0.000009(    45)     0
 -----------------------------------------------------------------------------------------------
 Internal  Forces:  Max     0.004071585 RMS     0.001330260

 GradGradGradGradGradGradGradGradGradGradGradGradGradGradGradGradGradGrad
 Berny optimization.
 Search for a local minimum.
 Step number   4 out of a maximum of   55
 All quantities printed in internal units (Hartrees-Bohrs-Radians)
 Update second derivatives using D2CorN and points    3    1    4
 ITU=  0  0  0  0
     Eigenvalues ---   -0.14619   0.02160   0.03082   0.03689   0.04488
     Eigenvalues ---    0.05103   0.05791   0.06901   0.09235   0.11217
     Eigenvalues ---    0.12515   0.14132   0.18374   0.18941   0.19282
     Eigenvalues ---    0.20745   0.21759   0.24099   0.25609   0.28664
     Eigenvalues ---    0.30764   0.34531   0.35256   0.35342   0.35630
     Eigenvalues ---    0.36342   0.36422   0.36633   0.37568   0.39339
     Eigenvalues ---    0.46773   0.47682   0.48405   0.49471   0.50323
     Eigenvalues ---    0.51734   0.53359   0.54500   0.56270   0.62232
     Eigenvalues ---    0.66781   1.17405   1.27587   1.85682  20.97773
 RFO step:  Lambda=-1.46202897D-01 EMin=-1.46188672D-01
 I=     1 Eig=   -1.46D-01 Dot1= -3.60D-04
 I=     1 Stepn= -2.50D-01 RXN=   2.50D-01 EDone=F
 Mixed    1 eigenvectors in step.  Raw Step.Grad=  3.60D-04.
 RFO eigenvector is Hessian eigenvector with negative curvature.
 Taking step of  2.50D-01 in eigenvector direction(s).  Step.Grad=  7.64D-04.
 Quartic linear search produced a step of -0.00100.
 Maximum step size (   0.100) exceeded in Quadratic search.
    -- Step size scaled by   0.400
 Variable       Old X    -DE/DX   Delta X   Delta X   Delta X     New X
                                 (Linear)    (Quad)   (Total)
    R2        1.89969   0.00044  -0.00000   0.00001   0.00001   1.89970
    R3        2.57557  -0.00228   0.00000  -0.00007  -0.00007   2.57550
    R4        2.61134  -0.00051   0.00000   0.00095   0.00095   2.61229
    R5        2.03427   0.00003   0.00000  -0.00001  -0.00001   2.03426
    R6        2.60154   0.00096  -0.00000  -0.00084  -0.00084   2.60069
    R7        2.62716   0.00086  -0.00000   0.00057   0.00057   2.62773
    R8        2.72497  -0.00101   0.00000  -0.00006  -0.00006   2.72492
    R9        2.03551  -0.00006   0.00000   0.00002   0.00002   2.03553
   R10        2.05278  -0.00011  -0.00000  -0.00002  -0.00002   2.05277
   R11        2.03239   0.00000  -0.00000   0.00008   0.00008   2.03247
   R12        2.54655   0.00047   0.00000  -0.00040  -0.00040   2.54615
   R13        2.04676   0.00004  -0.00000  -0.00004  -0.00004   2.04672
   R14        2.75078   0.00131   0.00000   0.00001   0.00001   2.75079
   R15        2.05164   0.00006   0.00000   0.00027   0.00027   2.05191
   R16        2.49228  -0.00020   0.00000  -0.00001  -0.00001   2.49226
   R17        2.19283   0.00321  -0.00000   0.00010   0.00010   2.19293
    A3        2.19088   0.00407  -0.00000  -0.01081  -0.01082   2.18007
    A4        2.15867   0.00365   0.00000   0.01135   0.01135   2.17002
    A5        2.12005   0.00006  -0.00000  -0.00038  -0.00038   2.11967
    A6        1.87792  -0.00162   0.00000   0.00069   0.00069   1.87861
    A7        1.85068  -0.00210   0.00000  -0.00103  -0.00103   1.84965
    A8        2.07796  -0.00028   0.00000   0.00370   0.00371   2.08166
    A9        2.19421  -0.00036   0.00000   0.00013   0.00013   2.19434
   A10        1.99066  -0.00025   0.00000   0.00343   0.00343   1.99408
   A11        2.20243   0.00039  -0.00000  -0.00017  -0.00017   2.20225
   A12        2.29105   0.00182  -0.00000  -0.00082  -0.00082   2.29023
   A13        2.02619  -0.00024   0.00000   0.00237   0.00237   2.02856
   A14        2.29691   0.00098  -0.00000   0.00162   0.00162   2.29853
   A15        2.05364  -0.00015   0.00000   0.00100   0.00101   2.05465
   A16        2.27808   0.00220  -0.00000   0.00076   0.00076   2.27885
   A17        3.06713  -0.00127   0.00000  -0.00025  -0.00025   3.06688
    D4       -3.12742  -0.00111   0.00000  -0.05609  -0.05608  -3.18351
    D5        0.00163  -0.00101   0.00000  -0.01539  -0.01539  -0.01376
    D6       -3.13727  -0.00111   0.00000   0.00092   0.00092  -3.13635
    D7        3.13795  -0.00202  -0.00001   0.00726   0.00726   3.14521
    D8        3.08731  -0.00051  -0.00000  -0.03116  -0.03116   3.05615
    D9       -3.13132   0.00021   0.00000  -0.00337  -0.00337  -3.13469
   D10       -0.26286   0.00055  -0.00001   0.04041   0.04041  -0.22246
   D11        3.08649  -0.00009   0.00000  -0.00345  -0.00345   3.08304
   D12       -3.12253  -0.00054  -0.00001   0.02608   0.02608  -3.09646
   D13        3.07647  -0.00101  -0.00001  -0.02920  -0.02921   3.04726
   D14        3.13731  -0.00099  -0.00001  -0.00917  -0.00917   3.12814
   D15        2.91646  -0.00046  -0.00000  -0.04465  -0.04465   2.87181
   D16        3.03217  -0.00037  -0.00000  -0.00629  -0.00630   3.02587
   D17        3.08784   0.00001   0.00000  -0.00080  -0.00080   3.08704
         Item               Value     Threshold  Converged?
 Maximum Force            0.004072     0.000450     NO 
 RMS     Force            0.001330     0.000300     NO 
 Maximum Displacement     0.056084     0.001800     NO 
 RMS     Displacement     0.014907     0.001200     NO 
 Predicted change in Energy=-8.751639D-04
 GradGradGradGradGradGradGradGradGradGradGradGradGradGradGradGradGradGrad

 ---------------------------------------------------------------------------------------------------
                            Z-MATRIX (ANGSTROMS AND DEGREES)
   CD    Cent   Atom    N1       Length/X        N2       Alpha/Y        N3        Beta/Z          J
 ---------------------------------------------------------------------------------------------------
      1      1  H 
      2      2  N        1   1.005277(     1)
      3      3  C        2   1.362898(     2)      1  124.909(    17)
      4      4  C        2   1.382366(     3)      1  124.333(    18)      3 -182.401(    32)      0
      5      5  H        3   1.076486(     4)      2  121.448(    19)      1   -0.788(    33)      0
      6      6  C        3   1.376228(     5)      2  107.636(    20)      5 -179.699(    34)      0
      7      7  C        4   1.390533(     6)      2  105.977(    21)      1  180.207(    35)      0
      8      8  C        4   1.441963(     7)      2  119.271(    22)      7  175.104(    36)      0
      9      9  H        6   1.077158(     8)      3  125.726(    23)      2 -179.605(    37)      0
     10     10  H        8   1.086277(     9)      4  114.253(    24)      2  -12.746(    38)      0
     11     11  H        7   1.075536(    10)      4  126.180(    25)      2  176.645(    39)      0
     12     12  C        8   1.347365(    11)      4  131.221(    26)     10 -177.414(    40)      0
     13     13  H       12   1.083079(    12)      8  116.228(    27)      4  174.595(    41)      0
     14     14  C       12   1.455654(    13)      8  131.696(    28)     13  179.229(    42)      0
     15     15  H       14   1.085822(    14)     12  117.723(    29)      8  164.543(    43)      0
     16     16  C       14   1.318848(    15)     12  130.568(    30)     15  173.369(    44)      0
     17     17  O       16   1.160448(    16)     14  175.719(    31)     12  176.874(    45)      0
 ---------------------------------------------------------------------------------------------------
                         Z-Matrix orientation:                         
 ---------------------------------------------------------------------
 Center     Atomic      Atomic             Coordinates (Angstroms)
 Number     Number       Type             X           Y           Z
[...]

 ----------------------------------------------------------------------
 1\1\GINC-BHC0108\Freq\RB3LYP\def2TZVP\C8H7N1O1\DHANAWAY\10-Jun-2022\1\
 \#N Geom=AllCheck Guess=TCheck SCRF=Check GenChk RB3LYP/def2TZVP Freq\
 \int_zmat_initalOpt\\0,1\H\N,1,R2\C,2,R3,1,A3\C,2,R4,1,A4,3,D4,0\H,3,R
 5,2,A5,1,D5,0\C,3,R6,2,A6,5,D6,0\C,4,R7,2,A7,1,D7,0\C,4,R8,2,A8,7,D8,0
 \H,6,R9,3,A9,2,D9,0\H,8,R10,4,A10,2,D10,0\H,7,R11,4,A11,2,D11,0\C,8,R1
 2,4,A12,10,D12,0\H,12,R13,8,A13,4,D13,0\C,12,R14,8,A14,13,D14,0\H,14,R
 15,12,A15,8,D15,0\C,14,R16,12,A16,15,D16,0\O,16,R17,14,A17,12,D17,0\\R
 2=1.00578443\R3=1.35990589\R4=1.3831014\R5=1.0765881\R6=1.37820048\R7=
 1.39187534\R8=1.43896016\R9=1.07707267\R10=1.0863572\R11=1.07528108\R1
 2=1.34824168\R13=1.08309931\R14=1.45813152\R15=1.08630277\R16=1.317209
 98\R17=1.16290623\A3=125.65374884\A4=123.52916502\A5=121.52541698\A6=1
 07.6476645\A7=105.96624671\A8=118.7961347\A9=125.58260247\A10=113.6389
 4188\A11=126.38270829\A12=132.0371395\A13=116.06481219\A14=131.5138789
 2\A15=117.5158791\A16=130.77029649\A17=175.76550496\D4=-181.27344686\D
 5=-1.26542801\D6=-179.81007346\D7=180.98430669\D8=176.91761324\D9=-179
 .64210497\D10=-8.67660653\D11=177.74663433\D12=-178.80459158\D13=175.8
 6925958\D14=179.98849873\D15=162.3994034\D16=173.74113652\D17=177.5474
 0695\\Version=ES64L-G16RevA.03\HF=-439.1580347\RMSD=2.479e-09\RMSF=4.2
 67e-04\ZeroPoint=0.1300499\Thermal=0.1390494\Dipole=0.6106003,0.350268
 5,-1.3421622\DipoleDeriv=0.1931192,0.0078564,-0.0574491,-0.0043886,0.2
 880796,0.0053649,-0.0529725,-0.0032495,0.2410796,0.3725871,0.0443691,-
 0.0995211,0.0512223,-0.1970536,-0.0195023,0.0884164,-0.0229946,-0.5988
 495,-0.4312417,-0.0414697,0.1956272,-0.0196935,-0.1140366,0.0130839,-0
 .4473214,-0.0345509,0.3602646,-0.4835727,-0.0488408,-0.1614716,-0.0003
 485,-0.0060099,0.0037715,-0.5075921,-0.0102434,0.1911497,0.0527667,0.0
 030715,0.0212082,-0.0005923,0.1811883,-0.0005252,0.0283772,-0.0040183,
 0.0690937,-0.4142314,-0.0417627,0.076893,0.0099676,-0.2232718,-0.01285
 03,0.3448919,0.0282286,-0.0769477,0.3554135,0.0190262,0.0140842,-0.036
 7732,-0.1774743,0.0263831,0.1960569,0.032594,-0.1383592,0.777434,0.051
 0122,0.1173457,0.0127273,-0.1150735,-0.0174652,0.3824783,0.0372707,-0.
 0313389,0.0174742,-0.0036763,-0.0601866,0.0082675,0.1665186,0.0016953,
 -0.0686341,-0.0027138,0.0099957,0.0199303,-0.011525,0.0480727,-0.03131
 44,0.1199867,0.0339236,-0.0140405,0.0332124,-0.0862782,0.0251239,0.010
 725,0.0809629,0.0201584,0.1464389,-0.0054708,0.0637641,-0.003918,0.008
 2996,-0.3478303,0.0063084,-0.1053707,0.1577567,-0.1303209,-0.1745483,-
 0.3155731,-0.1906741,0.4447206,-0.0592145,0.0146194,-0.0545055,-0.0119
 648,0.1258455,0.0558864,-0.0545482,0.0451534,-0.0374368,-0.0920305,0.1
 077285,-0.3550631,-0.102756,-0.3821737,0.2449265,0.1278214,0.2052927,-
 0.6434662,0.0228836,0.0273857,0.0574532,0.0610657,0.1655905,0.0164839,
 0.0469046,0.0511299,0.0445072,0.0499056,-0.4229118,0.7279367,0.0107141
 ,0.6919043,-0.8411694,-0.1966375,-0.8682211,1.633172,-0.0585169,0.2780
 837,-0.4460161,-0.1240483,-0.5401381,0.6700124,0.3786085,0.707702,-1.3
 89606\Polar=157.1558785,5.1022065,63.7284519,-5.6219515,-12.8760575,10
 9.9509992\PG=C01 [X(C8H7N1O1)]\NImag=0\\0.06186062,-0.00059902,0.01074
 157,-0.00072825,0.00033885,0.47196763,-0.07400374,0.00099783,0.0017137
 9,0.62946741,0.00075405,-0.00304751,-0.00023603,-0.00880978,0.08225270
 ,0.00079742,0.00054811,-0.45465322,0.02821404,0.00377091,0.95126983,0.
 01147722,-0.00032522,0.00427490,-0.25993189,0.00196709,-0.09812459,0.8
 0729850,-0.00026822,-0.00634833,-0.00019369,0.00108277,-0.05368442,-0.
 00015987,-0.01089025,0.11837786,-0.02632517,-0.00009600,-0.00998741,-0
 .09329413,0.00142507,-0.18165598,-0.11962523,0.00929812,0.66150538,0.0
 0934256,-0.00023815,-0.00445672,-0.21187121,0.00476948,0.07603570,-0.0
 8911867,0.00069871,-0.02374948,0.69604487,-0.00016488,-0.00625777,0.00
 023322,0.00563304,-0.05869372,-0.00074069,0.00082736,0.01407688,-0.000
 61021,-0.01576047,0.14107196,0.02564187,-0.00065470,-0.01072363,0.0809
 3006,0.00115059,-0.16437519,0.00875344,-0.00048727,-0.01062247,0.09378
 012,-0.00558575,0.65181261,0.00018639,-0.00001856,-0.00008458,-0.01889
 307,0.00045094,0.01159857,-0.30945622,0.00538403,0.10550379,0.00006648
 ,0.00006473,-0.00409063,0.32687754,0.00001488,-0.00202176,0.00004014,-
 0.00041686,-0.00217814,-0.00021141,0.00585459,-0.02484347,-0.00276458,
 -0.00007079,0.00259515,-0.00043134,-0.00595587,0.02015039,0.00081894,0
 .00002498,0.00067048,-0.02412488,0.00057390,0.01328278,0.11505040,-0.0
 0291371,-0.10969381,-0.00243222,-0.00003461,-0.00416799,-0.11359171,0.
 00285027,0.10107879,-0.00577807,0.00006412,-0.00347240,0.00134103,0.00
 134151,-0.00251483,-0.12970194,0.00116941,0.06074364,-0.04247943,-0.00
 056762,-0.07277378,0.00122335,0.00017351,0.02314708,0.62989181,0.00001
 940,0.00237262,-0.00002010,-0.00062314,0.01409218,-0.00136967,0.002083
 69,-0.06377167,-0.00549243,0.00054541,0.01074120,0.00179241,0.00004949
 ,0.00171950,-0.00031814,-0.00299388,0.11626396,-0.00410408,0.00007808,
 0.00088210,-0.04868117,-0.00162084,-0.08721550,0.08591233,-0.00532304,
 -0.33735893,-0.01262480,-0.00006391,0.00061708,-0.00069880,0.00018605,
 0.00272440,0.12193833,0.01138001,0.78479076,-0.00594032,0.00014998,0.0
 0323233,-0.01666190,-0.00112741,0.00337355,-0.03480807,0.00192951,0.07
 793652,-0.10954680,0.00086023,-0.04880013,0.00085949,0.00032539,0.0016
 7719,-0.29069567,0.00144742,-0.02085210,0.63375505,0.00022997,0.001197
 61,-0.00006886,-0.00007172,0.01346160,-0.00172344,0.00141026,0.0117631
 1,-0.00029059,-0.00096882,-0.06723373,-0.00705090,0.00007076,0.0044442
 6,-0.00024125,0.00347806,-0.05823084,-0.00204501,-0.01454602,0.1181720
 4,0.00414579,-0.00006558,0.00034428,0.03848121,-0.00272499,-0.08131897
 ,0.02147234,-0.00006314,-0.00050243,-0.05363671,-0.00208599,-0.3060442
 8,0.00042367,0.00005715,-0.00547494,0.01231441,-0.00219925,-0.11142597
 ,-0.12669369,0.02040509,0.75655993,0.00223909,-0.00027770,-0.00067315,
 -0.05496537,0.00010514,-0.01337686,0.00340795,0.00034819,0.01503561,-0
 .21433580,0.00514153,-0.04537414,-0.00090786,0.00025195,-0.00094075,0.
 01138316,-0.00053943,-0.00662237,-0.01314601,0.00325342,-0.02313614,0.
 77108723,-0.00055278,-0.00201347,-0.00018466,0.00140995,-0.00264475,0.
 00015581,-0.00072426,0.00187756,-0.00065064,0.01064157,-0.05115574,0.0
 0939535,-0.00003553,0.00242073,-0.00006195,-0.00031055,0.00342936,0.00
 015658,0.00030431,0.00165389,0.00048156,0.01825773,0.13454027,0.002072
 70,-0.00055178,0.00174172,0.01666478,-0.00164958,0.01389603,0.00718666
 ,0.00046333,-0.00086362,-0.08642048,0.00807930,-0.14724052,0.00069502,
 0.00026805,0.00102268,0.00270229,-0.00076786,-0.00863694,-0.03147196,0
 .00199058,-0.00693317,-0.06658839,-0.07930100,0.61811525,0.00085503,0.
 00000490,0.00036322,-0.00025286,0.00005659,0.00394825,0.01114879,0.000
 09996,0.00897192,-0.00604041,0.00011208,0.00085660,-0.00007933,-0.0000
 3341,-0.00080423,-0.16197698,-0.00165429,-0.14228533,-0.00666297,-0.00
 049787,-0.02361032,0.00069023,-0.00001866,-0.00117838,0.16183882,-0.00
 001459,0.00225754,0.00001774,0.00017870,0.00459066,-0.00026141,-0.0005
 2549,-0.00117784,-0.00003443,0.00020070,0.00419463,0.00026911,-0.00002
 504,-0.00288448,0.00007377,-0.00138850,-0.02664857,-0.00341603,-0.0000
 3940,-0.00076455,0.00010715,-0.00010211,0.00128803,-0.00022562,0.00186
 390,0.02192013,-0.00111821,-0.00005419,-0.00012411,0.00202105,-0.00015
 246,-0.00503973,-0.01947958,-0.00006041,-0.01151373,0.00194729,-0.0000
 5779,0.00006568,0.00044097,0.00006925,0.00040972,-0.13974073,-0.003257
 48,-0.25044094,0.00352076,0.00015585,0.00686595,-0.00012271,-0.0000092
 2,0.00036510,0.15331296,0.00334230,0.25927785,-0.00092393,0.00027085,0
 .00038686,0.00145387,-0.00037213,-0.00086268,-0.00028319,0.00016026,-0
 .00002508,0.00220362,0.00390395,-0.02919493,0.00001640,-0.00000950,0.0
 0003882,-0.00007511,-0.00016313,-0.00152556,-0.00436642,0.00064447,0.0
 0053720,-0.05655668,-0.00192766,0.01511359,-0.00043560,-0.00014397,0.0
 0007178,0.06746523,0.00041157,0.00064457,0.00004029,-0.00000999,-0.001
 65165,-0.00039025,0.00000356,0.00000141,-0.00048098,-0.00251916,0.0027
 5661,0.00140912,-0.00000002,0.00005819,-0.00000792,-0.00056957,0.00011
 808,0.00045336,0.00110545,0.00242492,0.00026267,0.00052387,-0.04095117
 ,0.04865914,0.00005396,-0.00027889,-0.00003334,0.00411391,0.03197469,-
 0.00141781,0.00033633,0.00021756,0.00245508,-0.00082356,0.00249496,-0.
 00118848,-0.00013174,-0.00060130,0.00118859,0.00266186,-0.01740991,0.0
 0002289,0.00006911,0.00002260,-0.00011686,-0.00022985,-0.00025570,-0.0
 0164474,0.00096863,0.00177630,0.01769943,0.04769940,-0.31474883,-0.000
 24560,-0.00005936,0.00014021,-0.01925710,-0.05264558,0.33689146,0.0007
 8643,0.00012296,-0.00036203,-0.00064218,0.00003008,-0.00405903,-0.0063
 6651,0.00027496,-0.00028034,0.01106888,-0.00048059,-0.00866628,0.00014
 829,-0.00009142,0.00139594,-0.00683019,0.00145480,0.02466046,-0.160096
 89,0.00894887,0.14186835,-0.00024619,-0.00006058,0.00090467,0.00090127
 ,-0.00016793,-0.00077053,0.00008935,-0.00000178,0.00007198,0.16539116,
 0.00003844,0.00249578,0.00004817,0.00068681,0.00385686,-0.00005549,-0.
 00027774,0.00385589,-0.00056219,-0.00022947,-0.00124807,0.00015328,-0.
 00000538,0.00102312,0.00000999,-0.00059523,0.00021609,0.00026180,0.009
 87030,-0.02589153,-0.01354780,0.00026967,-0.00296174,0.00036222,-0.000
 03335,-0.00242823,0.00006684,0.00001529,-0.00012588,-0.00000741,-0.007
 65471,0.02118246,0.00110863,-0.00004662,-0.00021095,-0.00168139,-0.000
 06130,-0.00493096,-0.00194262,-0.00017357,0.00001674,0.01886560,-0.000
 99672,-0.01054849,-0.00002806,-0.00003599,0.00042522,-0.00320430,0.000
 18995,0.00685008,0.14015708,-0.01350179,-0.25335796,0.00034913,0.00007
 916,0.00070667,0.00072325,0.00010992,-0.00002161,-0.00003531,0.0000062
 4,-0.00002347,-0.15508836,0.01380873,0.26140920,-0.00045504,-0.0001530
 9,-0.00003305,0.00667454,0.00063253,-0.00431581,-0.00379058,0.00021485
 ,-0.00487118,-0.04961515,0.00061249,-0.00745685,0.00005987,-0.00018657
 ,-0.00014446,-0.00554640,0.00103230,0.00493866,0.00880898,-0.00179179,
 0.01023207,-0.41650770,-0.02425500,0.12518171,0.00000821,0.00011969,-0
 .00005210,-0.00412643,-0.00278069,0.00104031,0.00004718,-0.00065011,-0
 .00048514,0.76602787,-0.00005675,-0.00026854,0.00008137,-0.00006557,0.
 00265174,0.00041021,0.00094557,0.00025796,0.00092387,0.00200328,0.0054
 5393,-0.00157125,0.00004659,-0.00024278,0.00007289,0.00102021,-0.00003
 332,-0.00039892,-0.00051492,0.00000579,0.00013147,-0.02024568,-0.05371
 986,0.01748328,0.00006185,-0.00005540,0.00000571,-0.00593964,0.0024665
 6,0.00263998,-0.00004882,-0.00012111,0.00005065,-0.00181416,0.12766487
 ,-0.00036064,0.00015536,-0.00034203,-0.00171961,0.00025630,-0.00181034
 ,-0.00366633,-0.00039424,-0.00068073,-0.00599160,-0.00168174,0.0197070
 2,-0.00022258,0.00004083,-0.00040887,-0.00102971,-0.00027445,-0.000126
 17,-0.00093506,0.00130401,-0.00181802,0.09735069,0.01895668,-0.1441505
 6,-0.00020714,0.00007518,0.00001010,0.03092273,0.00416536,-0.01157529,
 -0.00019595,-0.00020978,-0.00070029,-0.04263019,-0.10308422,0.56307199
 ,-0.00002502,0.00000632,-0.00006710,-0.00108112,-0.00008006,-0.0010105
 2,-0.00026899,0.00001564,0.00045995,-0.00146835,0.00019133,0.00382640,
 -0.00007909,0.00000488,-0.00009158,-0.00003435,0.00000434,-0.00019900,
 -0.00004503,0.00002546,0.00010531,-0.02444453,0.00386897,-0.02074318,-
 0.00004580,-0.00000784,-0.00001279,0.00028094,-0.00033681,-0.00010691,
 -0.00001321,-0.00003520,-0.00005484,-0.19723617,0.03147313,-0.13537301
 ,0.21597046,0.00001046,0.00007001,-0.00004181,-0.00030253,0.00119837,-
 0.00016298,-0.00011770,-0.00010425,-0.00005129,0.00022541,0.00860787,0
 .00214772,-0.00002969,-0.00046629,-0.00002375,-0.00011897,0.00006076,0
 .00001362,0.00026214,-0.00027771,-0.00017334,-0.00440970,0.00237666,0.
 00014161,0.00000700,-0.00013891,0.00000154,-0.00016957,-0.00660879,-0.
 00131252,0.00000774,0.00011571,-0.00001733,0.03436640,-0.03565825,0.03
 028522,-0.03171697,0.03001964,-0.00000310,0.00001040,-0.00002006,-0.00
 010446,0.00025915,0.00023611,0.00011097,-0.00003197,0.00010179,0.00241
 887,0.00196954,0.00101515,0.00001476,-0.00009803,0.00001686,0.00018281
 ,-0.00001302,0.00001370,0.00010274,-0.00009279,-0.00038782,0.00892436,
 -0.00094413,0.00826908,0.00003000,-0.00002428,-0.00000088,0.00119361,-
 0.00187647,0.00136146,0.00004584,0.00008959,0.00008374,-0.13748402,0.0
 3277849,-0.18009645,0.14009924,-0.03935821,0.19479192,0.00002890,-0.00
 002075,-0.00002017,-0.00207212,-0.00022269,0.00082251,0.00115100,0.000
 09892,0.00137926,0.00494890,-0.00042441,0.00125727,-0.00001346,0.00010
 393,0.00009934,0.00143384,-0.00037564,-0.00044074,-0.00133753,-0.00007
 292,-0.00238080,-0.00905106,-0.00555645,0.02786028,0.00008396,-0.00000
 679,-0.00001996,-0.00351315,-0.00010067,0.00144023,-0.00029769,0.00073
 055,0.00026169,-0.10119926,-0.00781948,0.06873209,0.00652670,0.0030969
 3,-0.01636187,0.53333327,0.00029136,0.00009682,-0.00008006,0.00049289,
 0.00006454,0.00004170,-0.00045180,-0.00040637,-0.00097975,0.00290200,-
 0.00432263,0.00062845,-0.00001475,0.00008436,-0.00004661,-0.00107243,0
 .00006564,0.00015438,0.00008713,0.00076048,-0.00110884,-0.00597034,0.0
 0372704,0.00693829,-0.00010147,0.00010566,0.00000575,-0.00069794,0.008
 94730,0.00067489,-0.00008356,-0.00063276,0.00022880,-0.00017260,-0.047
 93737,0.03181883,-0.00225727,-0.00060227,0.00691498,-0.16464849,0.2203
 9965,-0.00057856,0.00003013,0.00022280,-0.00091164,-0.00014542,-0.0000
 2338,0.00132635,0.00043101,0.00177590,-0.00820361,-0.00129783,-0.00364
 471,0.00002193,-0.00011970,0.00013291,0.00180739,0.00097901,0.00007562
 ,0.00079476,-0.00168674,0.00228152,0.02518064,0.00357677,-0.02214954,0
 .00021222,-0.00001065,-0.00001627,0.00240869,0.00005948,0.00196279,0.0
 0003358,-0.00014915,-0.00012380,0.03740746,0.03845072,-0.19902144,0.01
 025514,0.00885552,-0.02225470,0.01808894,-0.23378608,0.63549745,0.0000
 2368,-0.00000448,-0.00000025,-0.00000882,-0.00001269,-0.00005987,-0.00
 004339,0.00003035,0.00002060,-0.00009285,0.00020960,-0.00014900,0.0000
 0062,-0.00000705,0.00000592,0.00002206,-0.00001465,0.00004756,-0.00007
 466,-0.00004698,-0.00014234,0.00196675,0.00071616,0.00129322,-0.000009
 68,-0.00000505,-0.00000446,-0.00043814,-0.00034606,0.00017468,-0.00002
 827,0.00005762,0.00007579,-0.00910039,0.00254893,0.00311112,0.00123142
 ,-0.00070148,-0.00029489,-0.29677428,0.07385346,0.04509032,0.31969479,
 -0.00002681,0.00003389,0.00002160,-0.00005122,-0.00015391,0.00000688,-
 0.00003280,0.00000023,0.00018599,-0.00058174,0.00035495,-0.00042372,0.
 00000795,0.00004722,0.00002561,0.00020261,-0.00024475,0.00011884,-0.00
 033662,0.00005558,-0.00029321,0.00074312,0.00123843,0.00032727,0.00000
 255,-0.00001825,-0.00000755,-0.00020817,-0.00017174,0.00026178,0.00005
 355,0.00033044,0.00011918,-0.00652997,0.00545660,0.00416672,-0.0000282
 5,-0.00029034,0.00046202,0.07253304,-0.03846332,-0.00628798,-0.0827978
 6,0.03627079,-0.00009809,0.00004010,0.00003705,-0.00011124,-0.00004078
 ,0.00018325,0.00011499,-0.00002622,0.00028427,-0.00048452,0.00003821,-
 0.00051290,0.00001019,0.00002175,0.00003261,0.00034616,-0.00013653,0.0
 0002124,-0.00035589,-0.00010927,-0.00019588,-0.00039457,0.00070698,-0.
 00418377,0.00001167,0.00000070,-0.00000002,0.00077155,0.00075274,-0.00
 036685,0.00006735,0.00028745,0.00012880,0.02903732,-0.00500153,-0.0032
 6528,-0.00012616,-0.00023533,0.00148255,0.04133516,-0.00224312,-0.0488
 4166,-0.04866179,-0.00240179,0.05460392,0.00075170,-0.00012356,-0.0001
 5345,0.00482553,0.00107320,-0.00214472,-0.00266250,-0.00072995,-0.0048
 9026,-0.00119685,-0.00025971,0.00039301,0.00001547,-0.00004276,-0.0003
 0661,-0.00542256,0.00006238,0.00123359,0.00210704,0.00232164,0.0029155
 6,0.00489887,-0.00278603,0.01144969,-0.00024044,0.00011640,0.00003748,
 -0.00124366,0.00082306,-0.00017775,-0.00254267,-0.00307122,-0.00037029
 ,0.00520141,-0.00325005,-0.01244069,0.00022932,-0.00098608,0.00202780,
 -0.14966292,0.08719474,-0.10081065,-0.01879202,0.01955571,-0.02508355,
 0.32675734,-0.00042846,0.00006948,0.00018916,-0.00237530,-0.00044915,0
 .00100623,0.00221724,0.00007200,0.00261898,-0.00053731,-0.00207278,-0.
 00038681,0.00000051,0.00037688,0.00010729,0.00267050,-0.00093703,-0.00
 115460,-0.00157946,-0.00166340,0.00027654,-0.00032233,0.00235696,-0.00
 554168,0.00028945,0.00017339,-0.00000666,0.00090182,0.00109283,0.00000
 868,-0.00134009,0.00204894,-0.00041220,-0.00073512,-0.01157483,0.01715
 043,-0.00026534,0.00150181,-0.00169232,0.09082934,-0.13576229,0.165537
 27,0.00750734,-0.00810848,0.00721640,-0.24743787,0.39839037,0.00077742
 ,-0.00018845,-0.00038763,0.00495422,0.00047826,-0.00225302,-0.00424743
 ,-0.00048618,-0.00498786,0.00001623,0.00023235,-0.00052422,0.00005353,
 -0.00000802,-0.00028902,-0.00518616,-0.00028489,0.00182839,0.00290355,
 0.00290038,0.00265573,0.00044691,-0.00078018,0.01187753,-0.00054065,0.
 00000803,0.00001898,-0.00100373,-0.00031899,0.00013074,-0.00041420,-0.
 00203713,0.00073043,-0.01929247,0.01947476,-0.04636186,0.00318318,0.00
 014206,-0.00440121,-0.10461369,0.16517860,-0.32885822,-0.00317871,0.00
 237255,0.00275062,0.37510270,-0.53418304,1.02421547,-0.00042552,0.0001
 4358,0.00008005,-0.00337810,-0.00055584,0.00167888,0.00194849,0.000380
 87,0.00300959,0.00209021,0.00010134,0.00106696,-0.00002487,0.00008509,
 0.00020281,0.00324546,-0.00033506,-0.00069697,-0.00214830,-0.00238681,
 -0.00289590,-0.00551209,0.00102880,-0.00472220,0.00021777,-0.00005267,
 -0.00003122,0.00045290,-0.00037063,0.00006203,-0.00136875,0.00088373,0
 .00134915,0.00074907,0.00165551,0.00465589,0.00050282,0.00057660,-0.00
 090265,0.01641488,0.01064907,-0.03212295,0.00242319,-0.00250510,0.0036
 2143,-0.16302305,0.15060507,-0.24896070,0.14783589,0.00034140,-0.00002
 251,-0.00018534,0.00224412,0.00033460,-0.00086464,-0.00196410,0.000053
 47,-0.00243892,-0.00108065,0.00113124,-0.00035428,0.00000984,-0.000282
 88,-0.00009075,-0.00250318,0.00078679,0.00121962,0.00180195,0.00012249
 ,0.00054051,0.00297265,-0.00146219,0.00332445,-0.00021322,-0.00013492,
 -0.00000815,-0.00037885,-0.00069704,-0.00011064,-0.00096347,-0.0017159
 5,0.00065290,0.00209084,0.00565400,-0.00273050,-0.00086230,0.00019597,
 0.00164705,0.01185556,-0.00612448,0.02556363,-0.00098716,0.00366266,0.
 00113025,0.14754011,-0.24551470,0.34749989,-0.15990354,0.24401345,-0.0
 0062886,0.00009496,0.00036542,-0.00480571,-0.00045919,0.00191333,0.004
 07188,0.00025257,0.00478418,0.00374775,-0.00005926,0.00259676,-0.00006
 896,0.00006648,0.00021558,0.00485666,0.00002230,-0.00234321,-0.0029449
 0,-0.00091390,-0.00302427,-0.00775768,0.00072350,-0.00708709,0.0004415
 7,0.00002787,0.00000373,0.00045956,-0.00005487,-0.00001673,0.00078856,
 0.00148089,-0.00043337,0.00892773,-0.00244748,0.00756822,-0.00014411,-
 0.00021073,-0.00021124,-0.03743953,0.02565980,-0.01701526,0.00267213,0
 .00134579,-0.00215792,-0.24678186,0.34926634,-0.65614483,0.27460579,-0
 .37479508,0.67098670\\-0.00200159,0.00036836,0.00000444,0.00199215,-0.
 00083940,0.00001787,0.00000981,0.00045949,0.00001621,0.00000920,-0.000
 00389,0.00001154,0.00000225,-0.00000650,0.00000244,0.00003468,0.000020
 59,-0.00001814,-0.00002489,-0.00000241,-0.00001248,-0.00001431,0.00003
 552,-0.00000799,0.00000212,0.00000044,-0.00000182,-0.00000486,-0.00000
 122,-0.00000038,0.00000765,-0.00001304,-0.00000852,0.00000362,-0.00002
 354,-0.00001254,-0.00000335,-0.00000491,0.00000332,0.00007528,0.000198
 12,0.00007365,-0.00000559,-0.00002273,-0.00000565,-0.00015842,-0.00034
 586,-0.00011732,0.00007625,0.00018096,0.00005538\\\@


 IT CANNOT BE MY BEAUTY, FOR I HAVE NONE; AND IT CANNOT BE MY WIT,
 FOR HE HAS NOT ENOUGH TO KNOW THAT I HAVE ANY.
 -- CATHARINE SEDLEY, PUZZLED ABOUT WHY SHE WAS MISTRESS TO JAMES II
 Job cpu time:       0 days  2 hours  8 minutes 33.2 seconds.
 Elapsed time:       0 days  0 hours 10 minutes 44.0 seconds.
 File lengths (MBytes):  RWF=    182 Int=      0 D2E=      0 Chk=     32 Scr=      1
 Normal termination of Gaussian 16 at Fri Jun 10 23:59:52 2022.
