 Entering Gaussian System, Link 0=g16
 Input=ts_initalOpt_zmat_sp.gjf
 Output=ts_initalOpt_zmat_sp.out
 Initial command:
 /software/gaussian/g16-a03/l1.exe "/local_scratch/11174446/Gau-19418.inp" -scrdir="/local_scratch/11174446/"
 Entering Link 1 = /software/gaussian/g16-a03/l1.exe PID=     19419.
  
 Copyright (c) 1988,1990,1992,1993,1995,1998,2003,2009,2016,
            Gaussian, Inc.  All Rights Reserved.
  
 This is part of the Gaussian(R) 16 program.  It is based on
 the Gaussian(R) 09 system (copyright 2009, Gaussian, Inc.),
 the Gaussian(R) 03 system (copyright 2003, Gaussian, Inc.),
 the Gaussian(R) 98 system (copyright 1998, Gaussian, Inc.),
 the Gaussian(R) 94 system (copyright 1995, Gaussian, Inc.),
 the Gaussian 92(TM) system (copyright 1992, Gaussian, Inc.),
 the Gaussian 90(TM) system (copyright 1990, Gaussian, Inc.),
 the Gaussian 88(TM) system (copyright 1988, Gaussian, Inc.),
 the Gaussian 86(TM) system (copyright 1986, Carnegie Mellon
 University), and the Gaussian 82(TM) system (copyright 1983,
 Carnegie Mellon University). Gaussian is a federally registered
 trademark of Gaussian, Inc.
  
 This software contains proprietary and confidential information,
 including trade secrets, belonging to Gaussian, Inc.
  
 This software is provided under written license and may be
 used, copied, transmitted, or stored only in accord with that
 written license.
  
 The following legend is applicable only to US Government
 contracts under FAR:
  
                    RESTRICTED RIGHTS LEGEND
  
 Use, reproduction and disclosure by the US Government is
 subject to restrictions as set forth in subparagraphs (a)
 and (c) of the Commercial Computer Software - Restricted
 Rights clause in FAR 52.227-19.
  
 Gaussian, Inc.
 340 Quinnipiac St., Bldg. 40, Wallingford CT 06492
  
  
 ---------------------------------------------------------------
 Warning -- This program may not be used in any manner that
 competes with the business of Gaussian, Inc. or will provide
 assistance to any competitor of Gaussian, Inc.  The licensee
 of this program is prohibited from giving any competitor of
 Gaussian, Inc. access to this program.  By using this program,
 the user acknowledges that Gaussian, Inc. is engaged in the
 business of creating and licensing software in the field of
 computational chemistry and represents and warrants to the
 licensee that it is not a competitor of Gaussian, Inc. and that
 it will not use this program in any manner prohibited above.
 ---------------------------------------------------------------
  

 Cite this work as:
 Gaussian 16, Revision A.03,
 M. J. Frisch, G. W. Trucks, H. B. Schlegel, G. E. Scuseria, 
 M. A. Robb, J. R. Cheeseman, G. Scalmani, V. Barone, 
 G. A. Petersson, H. Nakatsuji, X. Li, M. Caricato, A. V. Marenich, 
 J. Bloino, B. G. Janesko, R. Gomperts, B. Mennucci, H. P. Hratchian, 
 J. V. Ortiz, A. F. Izmaylov, J. L. Sonnenberg, D. Williams-Young, 
 F. Ding, F. Lipparini, F. Egidi, J. Goings, B. Peng, A. Petrone, 
 T. Henderson, D. Ranasinghe, V. G. Zakrzewski, J. Gao, N. Rega, 
 G. Zheng, W. Liang, M. Hada, M. Ehara, K. Toyota, R. Fukuda, 
 J. Hasegawa, M. Ishida, T. Nakajima, Y. Honda, O. Kitao, H. Nakai, 
 T. Vreven, K. Throssell, J. A. Montgomery, Jr., J. E. Peralta, 
 F. Ogliaro, M. J. Bearpark, J. J. Heyd, E. N. Brothers, K. N. Kudin, 
 V. N. Staroverov, T. A. Keith, R. Kobayashi, J. Normand, 
 K. Raghavachari, A. P. Rendell, J. C. Burant, S. S. Iyengar, 
 J. Tomasi, M. Cossi, J. M. Millam, M. Klene, C. Adamo, R. Cammi, 
 J. W. Ochterski, R. L. Martin, K. Morokuma, O. Farkas, 
 J. B. Foresman, and D. J. Fox, Gaussian, Inc., Wallingford CT, 2016.
 
 ******************************************
 Gaussian 16:  ES64L-G16RevA.03 25-Dec-2016
                10-Jun-2022 
 ******************************************
 %nprocshared=12
 Will use up to   12 processors via shared memory.
 %chk=checkpoint.chk
 %mem=12GB
 --------------------------
 # sp B3LYP/Def2TZVP NoSymm
 --------------------------
 1/38=1,172=1/1;
 2/12=2,15=1,17=6,18=5,40=1/2;
 3/5=44,7=101,11=2,25=1,30=1,74=-5/1,2,3;
 4//1;
 5/5=2,38=5/2;
 6/7=2,8=2,9=2,10=2,28=1/1;
 99/5=1,9=1/99;
 ---------------------------
 ts_initalOpt_zmat_AlignedSp
 ---------------------------
 Symbolic Z-matrix:
 Charge =  0 Multiplicity = 1
 H
 C                    1    R2
 H                    2    R3       1    A3
 C                    2    R4       1    A4       3    D4       0
 H                    4    R5       2    A5       1    D5       0
 C                    4    R6       2    A6       5    D6       0
 H                    6    R7       4    A7       2    D7       0
 C                    6    R8       4    A8       7    D8       0
 H                    8    R9       6    A9       4    D9       0
 H                    8    R10      6    A10      9    D10      0
 C                    8    R11      6    A11      9    D11      0
 H                    11   R12      8    A12      6    D12      0
 H                    11   R13      8    A13      12   D13      0
       Variables:
  R2                    1.08422                  
  R3                    1.07697                  
  R4                    1.36997                  
  R5                    1.09297                  
  R6                    1.38898                  
  R7                    1.08703                  
  R8                    1.50547                  
  R9                    1.09595                  
  R10                   1.09295                  
  R11                   1.45933                  
  R12                   1.08047                  
  R13                   1.07871                  
  A3                  117.07369                  
  A4                  121.23389                  
  A5                  117.32828                  
  A6                  127.86756                  
  A7                  118.91714                  
  A8                  123.46834                  
  A9                  107.97209                  
  A10                 112.24803                  
  A11                 103.43863                  
  A12                 119.03922                  
  A13                 122.85703                  
  D4                  169.91232                  
  D5                  -21.4851                   
  D6                  177.62252                  
  D7                  151.07365                  
  D8                  178.25373                  
  D9                  168.41914                  
  D10                 118.57272                  
  D11                -118.46513                  
  D12                  66.14458                  
  D13                -178.67074                  
 
                          Input orientation:                          
 ---------------------------------------------------------------------
 Center     Atomic      Atomic             Coordinates (Angstroms)
 Number     Number       Type             X           Y           Z
 ---------------------------------------------------------------------
      1          1           0        0.000000    0.000000    0.000000
      2          6           0        0.000000    0.000000    1.084224
      3          1           0        0.958956    0.000000    1.574391
      4          6           0       -1.153294    0.205177    1.794598
      5          1           0       -1.974672    0.712521    1.282225
      6          6           0       -1.436817   -0.194932    3.094130
      7          1           0       -2.131237    0.395653    3.686265
      8          6           0       -0.860803   -1.434235    3.725608
      9          1           0       -1.076725   -1.398199    4.799474
     10          1           0       -1.308436   -2.348126    3.326907
     11          6           0        0.569242   -1.317260    3.459289
     12          1           0        1.125930   -0.517419    3.925945
     13          1           0        1.097678   -1.984637    2.796730
 ---------------------------------------------------------------------
                    Distance matrix (angstroms):
                    1          2          3          4          5
     1  H    0.000000
     2  C    1.084224   0.000000
     3  H    1.843449   1.076968   0.000000
     4  C    2.143074   1.369970   2.133586   0.000000
     5  H    2.459902   2.108606   3.033022   1.092971   0.000000
     6  C    3.417028   2.478339   2.843824   1.388977   2.096607
     7  H    4.276361   3.386640   3.763754   2.138003   2.429881
     8  C    4.083891   3.126487   3.161691   2.549907   3.437933
     9  H    5.113634   4.113075   4.062034   3.406752   4.199106
    10  H    4.277150   3.500761   3.704872   2.981844   3.740609
    11  C    3.745116   2.774914   2.332358   2.838335   3.915497
    12  H    4.116854   3.100133   2.413589   3.203069   4.256259
    13  H    3.600747   2.841894   2.334982   3.296427   4.359785
                    6          7          8          9         10
     6  C    0.000000
     7  H    1.087030   0.000000
     8  C    1.505466   2.228013   0.000000
     9  H    2.117951   2.359902   1.095952   0.000000
    10  H    2.169542   2.886947   1.092947   1.767627   0.000000
    11  C    2.327495   3.205960   1.459328   2.124113   2.146133
    12  H    2.713593   3.391207   2.197224   2.527947   3.104267
    13  H    3.116914   4.108886   2.236381   3.013789   2.490501
                   11         12         13
    11  C    0.000000
    12  H    1.080469   0.000000
    13  H    1.078713   1.851662   0.000000
 Symmetry turned off by external request.
 Stoichiometry    C5H8
 Framework group  C1[X(C5H8)]
 Deg. of freedom    33
 Full point group                 C1      NOp   1
 Rotational constants (GHZ):           8.4972827           4.4922933           3.1937431
 Standard basis: def2TZVP (5D, 7F)
   203 basis functions,   319 primitive gaussians,   228 cartesian basis functions
    19 alpha electrons       19 beta electrons
       nuclear repulsion energy       162.0285214569 Hartrees.
 NAtoms=   13 NActive=   13 NUniq=   13 SFac= 1.00D+00 NAtFMM=   60 NAOKFM=F Big=F
 Integral buffers will be    131072 words long.
 Raffenetti 2 integral format.
 Two-electron integral symmetry is turned off.
 One-electron integrals computed using PRISM.
   1 Symmetry operations used in ECPInt.
 ECPInt:  NShTT=    3828 NPrTT=   11160 LenC2=    3812 LenP2D=    9471.
 LDataN:  DoStor=T MaxTD1= 6 Len=  172
 NBasis=   203 RedAO= T EigKep=  1.52D-04  NBF=   203
 NBsUse=   203 1.00D-06 EigRej= -1.00D+00 NBFU=   203
 ExpMin= 9.52D-02 ExpMax= 1.36D+04 ExpMxC= 4.63D+02 IAcc=3 IRadAn=         5 AccDes= 0.00D+00
 Harris functional with IExCor=  402 and IRadAn=       5 diagonalized for initial guess.
 HarFok:  IExCor=  402 AccDes= 0.00D+00 IRadAn=         5 IDoV= 1 UseB2=F ITyADJ=14
 ICtDFT=  3500011 ScaDFX=  1.000000  1.000000  1.000000  1.000000
 FoFCou: FMM=F IPFlag=           0 FMFlag=      100000 FMFlg1=           0
         NFxFlg=           0 DoJE=T BraDBF=F KetDBF=T FulRan=T
         wScrn=  0.000000 ICntrl=       500 IOpCl=  0 I1Cent=   200000004 NGrid=           0
         NMat0=    1 NMatS0=      1 NMatT0=    0 NMatD0=    1 NMtDS0=    0 NMtDT0=    0
 Symmetry not used in FoFCou.
 Requested convergence on RMS density matrix=1.00D-08 within 128 cycles.
 Requested convergence on MAX density matrix=1.00D-06.
 Requested convergence on             energy=1.00D-06.
 No special actions if energy rises.
 Integral accuracy reduced to 1.0D-05 until final iterations.
 Initial convergence to 1.0D-05 achieved.  Increase integral accuracy.
 SCF Done:  E(RB3LYP) =  -195.276144741     A.U. after   16 cycles
            NFock= 16  Conv=0.37D-08     -V/T= 2.0056

 **********************************************************************

            Population analysis using the SCF density.

 **********************************************************************

 Alpha  occ. eigenvalues --  -10.18740 -10.18600 -10.18469 -10.17559 -10.16489
 Alpha  occ. eigenvalues --   -0.82368  -0.75245  -0.67093  -0.60108  -0.53463
 Alpha  occ. eigenvalues --   -0.48759  -0.46778  -0.42583  -0.41454  -0.39516
 Alpha  occ. eigenvalues --   -0.36521  -0.35512  -0.27343  -0.18397
 Alpha virt. eigenvalues --   -0.08328   0.01288   0.04902   0.06718   0.07387
 Alpha virt. eigenvalues --    0.08207   0.10560   0.11562   0.13789   0.14193
 Alpha virt. eigenvalues --    0.17698   0.19088   0.19568   0.20430   0.22977
 Alpha virt. eigenvalues --    0.23743   0.24518   0.26393   0.26990   0.27590
 Alpha virt. eigenvalues --    0.29571   0.33155   0.33345   0.35838   0.37689
 Alpha virt. eigenvalues --    0.40392   0.40738   0.42117   0.42929   0.43168
 Alpha virt. eigenvalues --    0.43489   0.45988   0.46726   0.47211   0.49294
 Alpha virt. eigenvalues --    0.50133   0.51765   0.52838   0.55018   0.58211
 Alpha virt. eigenvalues --    0.61048   0.65755   0.68977   0.70621   0.78451
 Alpha virt. eigenvalues --    0.79712   0.85223   0.87603   0.89794   0.90822
 Alpha virt. eigenvalues --    0.95226   0.97058   0.99549   1.00442   1.01631
 Alpha virt. eigenvalues --    1.04449   1.04575   1.07023   1.10330   1.12102
 Alpha virt. eigenvalues --    1.18430   1.21119   1.22073   1.23439   1.27381
 Alpha virt. eigenvalues --    1.32995   1.39639   1.43052   1.45358   1.46145
 Alpha virt. eigenvalues --    1.47178   1.49968   1.54563   1.56681   1.57820
 Alpha virt. eigenvalues --    1.59661   1.61779   1.65847   1.67299   1.69117
 Alpha virt. eigenvalues --    1.72962   1.75890   1.76463   1.80698   1.82577
 Alpha virt. eigenvalues --    1.84419   1.88010   1.89276   1.90277   1.97669
 Alpha virt. eigenvalues --    1.99894   2.03542   2.08218   2.15440   2.16494
 Alpha virt. eigenvalues --    2.21521   2.24359   2.26263   2.26467   2.35037
 Alpha virt. eigenvalues --    2.36737   2.39595   2.43509   2.46708   2.48081
 Alpha virt. eigenvalues --    2.51036   2.53446   2.54813   2.57826   2.59531
 Alpha virt. eigenvalues --    2.60712   2.62274   2.63222   2.65524   2.70696
 Alpha virt. eigenvalues --    2.73297   2.75321   2.79191   2.79614   2.82505
 Alpha virt. eigenvalues --    2.87525   2.90331   2.91901   2.94470   2.96709
 Alpha virt. eigenvalues --    3.00995   3.01260   3.03201   3.05855   3.10546
 Alpha virt. eigenvalues --    3.12088   3.13427   3.15409   3.16146   3.19683
 Alpha virt. eigenvalues --    3.21507   3.22884   3.24753   3.26354   3.28747
 Alpha virt. eigenvalues --    3.31340   3.32302   3.36349   3.40243   3.41404
 Alpha virt. eigenvalues --    3.45226   3.50647   3.53891   3.55288   3.61248
 Alpha virt. eigenvalues --    3.63932   3.65216   3.66821   3.72068   3.78050
 Alpha virt. eigenvalues --    3.79190   3.90371   3.94230   3.97053   4.03174
 Alpha virt. eigenvalues --    4.06504   4.11443   4.12849   4.20051   4.20809
 Alpha virt. eigenvalues --    4.24612   4.35174   4.38893   4.47361   4.50282
 Alpha virt. eigenvalues --    4.57479   4.65401   4.68540   4.69379   4.73413
 Alpha virt. eigenvalues --    4.83298   4.87436   5.02110   5.10277  22.11167
 Alpha virt. eigenvalues --   22.22841  22.38064  22.48244  22.73007
          Condensed to atoms (all electrons):
               1          2          3          4          5          6
     1  H    0.563909   0.408222  -0.034177  -0.053963  -0.005572   0.009500
     2  C    0.408222   5.045584   0.413365   0.516199  -0.040024  -0.083564
     3  H   -0.034177   0.413365   0.530490  -0.030786   0.005743  -0.015296
     4  C   -0.053963   0.516199  -0.030786   4.884668   0.402715   0.480654
     5  H   -0.005572  -0.040024   0.005743   0.402715   0.576548  -0.051790
     6  C    0.009500  -0.083564  -0.015296   0.480654  -0.051790   5.192256
     7  H   -0.000148   0.007898  -0.000281  -0.046087  -0.001925   0.390672
     8  C   -0.001403  -0.021609   0.004427  -0.017061   0.003273   0.329930
     9  H    0.000072   0.002725  -0.000233   0.002775   0.000037  -0.038600
    10  H    0.000376   0.009365  -0.000587  -0.014946   0.000119  -0.051604
    11  C    0.005034   0.062558  -0.003448  -0.079404   0.005515   0.001981
    12  H    0.000114  -0.003558  -0.001748   0.003008  -0.000134  -0.003195
    13  H    0.000850  -0.004895  -0.005785  -0.002989  -0.000049   0.010284
               7          8          9         10         11         12
     1  H   -0.000148  -0.001403   0.000072   0.000376   0.005034   0.000114
     2  C    0.007898  -0.021609   0.002725   0.009365   0.062558  -0.003558
     3  H   -0.000281   0.004427  -0.000233  -0.000587  -0.003448  -0.001748
     4  C   -0.046087  -0.017061   0.002775  -0.014946  -0.079404   0.003008
     5  H   -0.001925   0.003273   0.000037   0.000119   0.005515  -0.000134
     6  C    0.390672   0.329930  -0.038600  -0.051604   0.001981  -0.003195
     7  H    0.581316  -0.053124  -0.003113   0.007643   0.014048   0.000247
     8  C   -0.053124   4.797149   0.391882   0.384331   0.334006  -0.045402
     9  H   -0.003113   0.391882   0.602716  -0.014940  -0.049437  -0.005538
    10  H    0.007643   0.384331  -0.014940   0.610987  -0.027921   0.005315
    11  C    0.014048   0.334006  -0.049437  -0.027921   5.258588   0.414730
    12  H    0.000247  -0.045402  -0.005538   0.005315   0.414730   0.524700
    13  H   -0.000427  -0.035675   0.004861  -0.006726   0.407815  -0.028877
              13
     1  H    0.000850
     2  C   -0.004895
     3  H   -0.005785
     4  C   -0.002989
     5  H   -0.000049
     6  C    0.010284
     7  H   -0.000427
     8  C   -0.035675
     9  H    0.004861
    10  H   -0.006726
    11  C    0.407815
    12  H   -0.028877
    13  H    0.518605
 Mulliken charges:
               1
     1  H    0.107188
     2  C   -0.312266
     3  H    0.138316
     4  C   -0.044782
     5  H    0.105544
     6  C   -0.171227
     7  H    0.103282
     8  C   -0.070723
     9  H    0.106793
    10  H    0.098588
    11  C   -0.344064
    12  H    0.140340
    13  H    0.143010
 Sum of Mulliken charges =  -0.00000
 Mulliken charges with hydrogens summed into heavy atoms:
               1
     2  C   -0.066761
     4  C    0.060762
     6  C   -0.067944
     8  C    0.134658
    11  C   -0.060714
 Electronic spatial extent (au):  <R**2>=           1465.8644
 Charge=             -0.0000 electrons
 Dipole moment (field-independent basis, Debye):
    X=             -0.2748    Y=             -0.1699    Z=              0.5184  Tot=              0.6108
 Quadrupole moment (field-independent basis, Debye-Ang):
   XX=            -31.2867   YY=            -33.5686   ZZ=            -28.8040
   XY=             -0.3895   XZ=             -1.6712   YZ=             -0.5065
 Traceless Quadrupole moment (field-independent basis, Debye-Ang):
   XX=             -0.0670   YY=             -2.3488   ZZ=              2.4158
   XY=             -0.3895   XZ=             -1.6712   YZ=             -0.5065
 Octapole moment (field-independent basis, Debye-Ang**2):
  XXX=             51.9929  YYY=             52.5320  ZZZ=           -239.5713  XYY=             15.9996
  XXY=             20.8127  XXZ=            -81.9159  XZZ=              7.2769  YZZ=             18.7361
  YYZ=            -88.1640  XYZ=              2.0866
 Hexadecapole moment (field-independent basis, Debye-Ang**3):
 XXXX=           -244.4852 YYYY=           -214.6468 ZZZZ=          -1556.1387 XXXY=            -13.2020
 XXXZ=            143.2053 YYYX=             -2.5542 YYYZ=            203.5700 ZZZX=             90.5577
 ZZZY=            215.0224 XXYY=            -75.3957 XXZZ=           -299.3782 YYZZ=           -323.0331
 XXYZ=             74.4562 YYXZ=             40.9999 ZZXY=             12.7998
 N-N= 1.620285214569D+02 E-N=-7.760010012247D+02  KE= 1.941950451218D+02
 1\1\GINC-BHC0108\SP\RB3LYP\def2TZVP\C5H8\DHANAWAY\10-Jun-2022\0\\# sp 
 B3LYP/Def2TZVP NoSymm\\ts_initalOpt_zmat_AlignedSp\\0,1\H\C,1,1.084223
 53\H,2,1.07696815,1,117.07369131\C,2,1.36996954,1,121.23389339,3,169.9
 123212,0\H,4,1.09297091,2,117.32828316,1,-21.48510071,0\C,4,1.38897687
 ,2,127.86756477,5,177.62252149,0\H,6,1.08702961,4,118.9171403,2,151.07
 364674,0\C,6,1.50546643,4,123.46834403,7,178.25373076,0\H,8,1.09595197
 ,6,107.97209234,4,168.41914129,0\H,8,1.09294735,6,112.24803153,9,118.5
 7271829,0\C,8,1.45932768,6,103.438631,9,-118.46512589,0\H,11,1.0804694
 ,8,119.03921765,6,66.14457563,0\H,11,1.07871289,8,122.85703423,12,-178
 .67074378,0\\Version=ES64L-G16RevA.03\HF=-195.2761447\RMSD=3.664e-09\D
 ipole=-0.1081306,-0.0668459,0.2039363\Quadrupole=-0.0497954,-1.7462974
 ,1.7960928,-0.2895655,-1.2424743,-0.3765561\PG=C01 [X(C5H8)]\\@


 Everywhere is walking distance if you have the time.
                                    -- Steven Wright
 Job cpu time:       0 days  0 hours  4 minutes 38.5 seconds.
 Elapsed time:       0 days  0 hours  0 minutes 23.6 seconds.
 File lengths (MBytes):  RWF=     25 Int=      0 D2E=      0 Chk=     32 Scr=      1
 Normal termination of Gaussian 16 at Fri Jun 10 22:26:28 2022.
