 Entering Gaussian System, Link 0=g16
 Input=int_zmat_field_N25.gjf
 Output=int_zmat_field_N25.out
 Initial command:
 /software/gaussian/g16-a03/l1.exe "/local_scratch/11174453/Gau-21717.inp" -scrdir="/local_scratch/11174453/"
 Entering Link 1 = /software/gaussian/g16-a03/l1.exe PID=     21718.
  
 Copyright (c) 1988,1990,1992,1993,1995,1998,2003,2009,2016,
            Gaussian, Inc.  All Rights Reserved.
  
 This is part of the Gaussian(R) 16 program.  It is based on
 the Gaussian(R) 09 system (copyright 2009, Gaussian, Inc.),
 the Gaussian(R) 03 system (copyright 2003, Gaussian, Inc.),
 the Gaussian(R) 98 system (copyright 1998, Gaussian, Inc.),
 the Gaussian(R) 94 system (copyright 1995, Gaussian, Inc.),
 the Gaussian 92(TM) system (copyright 1992, Gaussian, Inc.),
 the Gaussian 90(TM) system (copyright 1990, Gaussian, Inc.),
 the Gaussian 88(TM) system (copyright 1988, Gaussian, Inc.),
 the Gaussian 86(TM) system (copyright 1986, Carnegie Mellon
 University), and the Gaussian 82(TM) system (copyright 1983,
 Carnegie Mellon University). Gaussian is a federally registered
 trademark of Gaussian, Inc.
  
 This software contains proprietary and confidential information,
 including trade secrets, belonging to Gaussian, Inc.
  
 This software is provided under written license and may be
 used, copied, transmitted, or stored only in accord with that
 written license.
  
 The following legend is applicable only to US Government
 contracts under FAR:
  
                    RESTRICTED RIGHTS LEGEND
  
 Use, reproduction and disclosure by the US Government is
 subject to restrictions as set forth in subparagraphs (a)
 and (c) of the Commercial Computer Software - Restricted
 Rights clause in FAR 52.227-19.
  
 Gaussian, Inc.
 340 Quinnipiac St., Bldg. 40, Wallingford CT 06492
  
  
 ---------------------------------------------------------------
 Warning -- This program may not be used in any manner that
 competes with the business of Gaussian, Inc. or will provide
 assistance to any competitor of Gaussian, Inc.  The licensee
 of this program is prohibited from giving any competitor of
 Gaussian, Inc. access to this program.  By using this program,
 the user acknowledges that Gaussian, Inc. is engaged in the
 business of creating and licensing software in the field of
 computational chemistry and represents and warrants to the
 licensee that it is not a competitor of Gaussian, Inc. and that
 it will not use this program in any manner prohibited above.
 ---------------------------------------------------------------
  

 Cite this work as:
 Gaussian 16, Revision A.03,
 M. J. Frisch, G. W. Trucks, H. B. Schlegel, G. E. Scuseria, 
 M. A. Robb, J. R. Cheeseman, G. Scalmani, V. Barone, 
 G. A. Petersson, H. Nakatsuji, X. Li, M. Caricato, A. V. Marenich, 
 J. Bloino, B. G. Janesko, R. Gomperts, B. Mennucci, H. P. Hratchian, 
 J. V. Ortiz, A. F. Izmaylov, J. L. Sonnenberg, D. Williams-Young, 
 F. Ding, F. Lipparini, F. Egidi, J. Goings, B. Peng, A. Petrone, 
 T. Henderson, D. Ranasinghe, V. G. Zakrzewski, J. Gao, N. Rega, 
 G. Zheng, W. Liang, M. Hada, M. Ehara, K. Toyota, R. Fukuda, 
 J. Hasegawa, M. Ishida, T. Nakajima, Y. Honda, O. Kitao, H. Nakai, 
 T. Vreven, K. Throssell, J. A. Montgomery, Jr., J. E. Peralta, 
 F. Ogliaro, M. J. Bearpark, J. J. Heyd, E. N. Brothers, K. N. Kudin, 
 V. N. Staroverov, T. A. Keith, R. Kobayashi, J. Normand, 
 K. Raghavachari, A. P. Rendell, J. C. Burant, S. S. Iyengar, 
 J. Tomasi, M. Cossi, J. M. Millam, M. Klene, C. Adamo, R. Cammi, 
 J. W. Ochterski, R. L. Martin, K. Morokuma, O. Farkas, 
 J. B. Foresman, and D. J. Fox, Gaussian, Inc., Wallingford CT, 2016.
 
 ******************************************
 Gaussian 16:  ES64L-G16RevA.03 25-Dec-2016
                10-Jun-2022 
 ******************************************
 %nprocshared=12
 Will use up to   12 processors via shared memory.
 %chk=checkpoint.chk
 %mem=12GB
 ----------------------------------------------------------------------
 # Opt=(Z-matrix, MaxStep=10) B3LYP/Def2TZVP Field=read NoSymm freq=nor
 aman pop=none
 ----------------------------------------------------------------------
 1/8=10,10=7,18=40,26=3,38=1/1,3;
 2/12=2,15=1,17=6,18=5,29=3,40=1/2;
 3/5=44,7=101,11=2,14=-6,25=1,30=1,71=1,74=-5/1,2,3;
 4//1;
 5/5=2,38=5/2;
 7/29=1,30=1/1,2,3,16;
 1/8=10,10=7,18=40,26=3/3(2);
 2/15=1,29=3/2;
 99//99;
 2/15=1,29=3/2;
 3/5=44,7=101,11=2,14=-2,25=1,30=1,71=1,74=-5/1,2,3;
 4/5=5,16=3,69=1/1;
 5/5=2,38=5/2;
 7/30=1/1,2,3,16;
 1/8=10,18=40,26=3/3(-5);
 2/15=1,29=3/2;
 99/9=1/99;
 ------------------
 int_zmat_initalOpt
 ------------------
 Symbolic Z-matrix:
 Charge =  0 Multiplicity = 1
 H
 N                    1    R2
 C                    2    R3       1    A3
 C                    2    R4       1    A4       3    D4       0
 H                    3    R5       2    A5       1    D5       0
 C                    3    R6       2    A6       5    D6       0
 C                    4    R7       2    A7       1    D7       0
 C                    4    R8       2    A8       7    D8       0
 H                    6    R9       3    A9       2    D9       0
 H                    8    R10      4    A10      2    D10      0
 H                    7    R11      4    A11      2    D11      0
 C                    8    R12      4    A12      10   D12      0
 H                    12   R13      8    A13      4    D13      0
 C                    12   R14      8    A14      13   D14      0
 H                    14   R15      12   A15      8    D15      0
 C                    14   R16      12   A16      15   D16      0
 O                    16   R17      14   A17      12   D17      0
       Variables:
  R2                    1.00484                  
  R3                    1.36598                  
  R4                    1.38161                  
  R5                    1.07652                  
  R6                    1.37525                  
  R7                    1.38864                  
  R8                    1.44481                  
  R9                    1.07724                  
  R10                   1.08623                  
  R11                   1.07576                  
  R12                   1.34727                  
  R13                   1.0832                   
  R14                   1.45401                  
  R15                   1.08514                  
  R16                   1.31998                  
  R17                   1.15845                  
  A3                  125.07529                  
  A4                  124.15012                  
  A5                  121.39736                  
  A6                  107.62791                  
  A7                  106.10832                  
  A8                  119.70483                  
  A9                  125.85836                  
  A10                 114.48903                  
  A11                 125.97988                  
  A12                 130.23634                  
  A13                 116.20766                  
  A14                 131.31079                  
  A15                 118.0439                   
  A16                 129.55525                  
  A17                 176.33458                  
  D4                 -175.58008                  
  D5                    2.93158                  
  D6                 -179.87474                  
  D7                  176.97163                  
  D8                  176.57525                  
  D9                 -179.02112                  
  D10                 -20.74168                  
  D11                 176.35916                  
  D12                -179.21943                  
  D13                 175.72102                  
  D14                 179.16973                  
  D15                 168.75664                  
  D16                 173.38415                  
  D17                 176.91057                  
 

 GradGradGradGradGradGradGradGradGradGradGradGradGradGradGradGradGradGrad
 Berny optimization.
 Initialization pass.
                       ----------------------------
                       !    Initial Parameters    !
                       ! (Angstroms and Degrees)  !
 ----------------------                            ----------------------
 !      Name          Value   Derivative information (Atomic Units)     !
 ------------------------------------------------------------------------
 !       R2          1.0048   estimate D2E/DX2                          !
 !       R3          1.366    estimate D2E/DX2                          !
 !       R4          1.3816   estimate D2E/DX2                          !
 !       R5          1.0765   estimate D2E/DX2                          !
 !       R6          1.3752   estimate D2E/DX2                          !
 !       R7          1.3886   estimate D2E/DX2                          !
 !       R8          1.4448   estimate D2E/DX2                          !
 !       R9          1.0772   estimate D2E/DX2                          !
 !       R10         1.0862   estimate D2E/DX2                          !
 !       R11         1.0758   estimate D2E/DX2                          !
 !       R12         1.3473   estimate D2E/DX2                          !
 !       R13         1.0832   estimate D2E/DX2                          !
 !       R14         1.454    estimate D2E/DX2                          !
 !       R15         1.0851   estimate D2E/DX2                          !
 !       R16         1.32     estimate D2E/DX2                          !
 !       R17         1.1584   estimate D2E/DX2                          !
 !       A3        125.0753   estimate D2E/DX2                          !
 !       A4        124.1501   estimate D2E/DX2                          !
 !       A5        121.3974   estimate D2E/DX2                          !
 !       A6        107.6279   estimate D2E/DX2                          !
 !       A7        106.1083   estimate D2E/DX2                          !
 !       A8        119.7048   estimate D2E/DX2                          !
 !       A9        125.8584   estimate D2E/DX2                          !
 !       A10       114.489    estimate D2E/DX2                          !
 !       A11       125.9799   estimate D2E/DX2                          !
 !       A12       130.2363   estimate D2E/DX2                          !
 !       A13       116.2077   estimate D2E/DX2                          !
 !       A14       131.3108   estimate D2E/DX2                          !
 !       A15       118.0439   estimate D2E/DX2                          !
 !       A16       129.5552   estimate D2E/DX2                          !
 !       A17       176.3346   estimate D2E/DX2                          !
 !       D4       -175.5801   estimate D2E/DX2                          !
 !       D5          2.9316   estimate D2E/DX2                          !
 !       D6       -179.8747   estimate D2E/DX2                          !
 !       D7        176.9716   estimate D2E/DX2                          !
 !       D8        176.5752   estimate D2E/DX2                          !
 !       D9       -179.0211   estimate D2E/DX2                          !
 !       D10       -20.7417   estimate D2E/DX2                          !
 !       D11       176.3592   estimate D2E/DX2                          !
 !       D12      -179.2194   estimate D2E/DX2                          !
 !       D13       175.721    estimate D2E/DX2                          !
 !       D14       179.1697   estimate D2E/DX2                          !
 !       D15       168.7566   estimate D2E/DX2                          !
 !       D16       173.3841   estimate D2E/DX2                          !
 !       D17       176.9106   estimate D2E/DX2                          !
 ------------------------------------------------------------------------
 Trust Radius=1.00D-01 FncErr=1.00D-07 GrdErr=1.00D-06 EigMax=2.50D+02 EigMin=1.00D-04
 Number of steps in this run=     55 maximum allowed number of steps=    100.
 GradGradGradGradGradGradGradGradGradGradGradGradGradGradGradGradGradGrad

 ---------------------------------------------------------------------------------------------------
                            Z-MATRIX (ANGSTROMS AND DEGREES)
   CD    Cent   Atom    N1       Length/X        N2       Alpha/Y        N3        Beta/Z          J
 ---------------------------------------------------------------------------------------------------
      1      1  H 
      2      2  N        1   1.004841(     1)
      3      3  C        2   1.365982(     2)      1  125.075(    17)
      4      4  C        2   1.381610(     3)      1  124.150(    18)      3 -175.580(    32)      0
      5      5  H        3   1.076516(     4)      2  121.397(    19)      1    2.932(    33)      0
      6      6  C        3   1.375249(     5)      2  107.628(    20)      5 -179.875(    34)      0
      7      7  C        4   1.388644(     6)      2  106.108(    21)      1  176.972(    35)      0
      8      8  C        4   1.444809(     7)      2  119.705(    22)      7  176.575(    36)      0
      9      9  H        6   1.077236(     8)      3  125.858(    23)      2 -179.021(    37)      0
     10     10  H        8   1.086232(     9)      4  114.489(    24)      2  -20.742(    38)      0
     11     11  H        7   1.075765(    10)      4  125.980(    25)      2  176.359(    39)      0
     12     12  C        8   1.347267(    11)      4  130.236(    26)     10 -179.219(    40)      0
     13     13  H       12   1.083197(    12)      8  116.208(    27)      4  175.721(    41)      0
     14     14  C       12   1.454005(    13)      8  131.311(    28)     13  179.170(    42)      0
     15     15  H       14   1.085143(    14)     12  118.044(    29)      8  168.757(    43)      0
     16     16  C       14   1.319979(    15)     12  129.555(    30)     15  173.384(    44)      0
     17     17  O       16   1.158447(    16)     14  176.335(    31)     12  176.911(    45)      0
 ---------------------------------------------------------------------------------------------------
                         Z-Matrix orientation:                         
 ---------------------------------------------------------------------
 Center     Atomic      Atomic             Coordinates (Angstroms)
 Number     Number       Type             X           Y           Z
 ---------------------------------------------------------------------
      1          1           0        0.000000    0.000000    0.000000
      2          7           0        0.000000    0.000000    1.004841
      3          6           0        1.117917    0.000000    1.789806
      4          6           0       -1.139978   -0.088115    1.780426
      5          1           0        2.104251    0.046995    1.361059
      6          6           0        0.706648   -0.069894    3.100257
      7          6           0       -0.706790   -0.125324    3.099249
      8          6           0       -2.439518   -0.047099    1.150358
      9          1           0        1.350041   -0.072973    3.964243
     10          1           0       -2.445499    0.397071    0.159109
     11          1           0       -1.336649   -0.138043    3.971250
     12          6           0       -3.639728   -0.458583    1.603467
     13          1           0       -4.488973   -0.252555    0.963428
     14          6           0       -4.017330   -1.161363    2.819052
     15          1           0       -5.072560   -1.227440    3.063301
     16          6           0       -3.269319   -1.858438    3.653864
     17          8           0       -2.673008   -2.479757    4.428703
 ---------------------------------------------------------------------
                    Distance matrix (angstroms):
                    1          2          3          4          5
     1  H    0.000000
     2  N    1.004841   0.000000
     3  C    2.110247   1.365982   0.000000
     4  C    2.115947   1.381610   2.259633   0.000000
     5  H    2.506504   2.134706   1.076516   3.274010   0.000000
     6  C    3.180539   2.212466   1.375249   2.269871   2.234226
     7  C    3.181290   2.214002   2.249423   1.388644   3.309524
     8  C    2.697553   2.444308   3.614755   1.444809   4.549625
     9  H    4.188456   3.253613   2.188009   3.312021   2.712893
    10  H    2.482629   2.617899   3.938880   2.137396   4.718841
    11  H    4.192435   3.256573   3.286738   2.200200   4.322861
    12  C    4.003626   3.717024   4.783325   2.533241   5.771279
    13  H    4.598137   4.496263   5.673086   3.451130   6.611993
    14  C    5.043288   4.558406   5.364594   3.241876   6.407778
    15  H    6.051553   5.610235   6.438199   4.290575   7.485214
    16  C    5.243373   4.599952   5.116282   3.343337   6.145151
    17  O    5.736512   5.001699   5.242526   3.883748   6.214267
                    6          7          8          9         10
     6  C    0.000000
     7  C    1.414525   0.000000
     8  C    3.701484   2.608954   0.000000
     9  H    1.077236   2.231929   4.720104   0.000000
    10  H    4.336409   3.455493   1.086232   5.395008   0.000000
    11  H    2.222237   1.075765   3.030185   2.687487   4.006035
    12  C    4.613289   3.309162   1.347267   5.533512   2.060217
    13  H    5.620844   4.345438   2.068193   6.567437   2.290138
    14  C    4.856578   3.480167   2.552570   5.595063   3.460443
    15  H    5.894109   4.502877   3.462003   6.587435   4.239672
    16  C    4.394733   3.142902   3.199540   4.962127   4.240202
    17  O    4.358243   3.343174   4.088995   4.710972   5.153381
                   11         12         13         14         15
    11  H    0.000000
    12  C    3.318631   0.000000
    13  H    4.358584   1.083197   0.000000
    14  C    3.092053   1.454005   2.119367   0.000000
    15  H    3.996021   2.185238   2.387560   1.085143   0.000000
    16  C    2.606857   2.510164   3.362270   1.319979   1.999650
    17  O    2.734728   3.605780   4.501809   2.477164   3.031579
                   16         17
    16  C    0.000000
    17  O    1.158447   0.000000
 Symmetry turned off by external request.
 Stoichiometry    C8H7NO
 Framework group  C1[X(C8H7NO)]
 Deg. of freedom    45
 Full point group                 C1      NOp   1
 Rotational constants (GHZ):           2.4040287           0.9754095           0.7267253
 Standard basis: def2TZVP (5D, 7F)
 The following finite field(s) will be applied:
 An electric field of             -0.0021 -0.0003  0.0014
   352 basis functions,   566 primitive gaussians,   402 cartesian basis functions
    35 alpha electrons       35 beta electrons
       nuclear repulsion energy       459.9970950441 Hartrees.
 NAtoms=   17 NActive=   17 NUniq=   17 SFac= 1.00D+00 NAtFMM=   60 NAOKFM=F Big=F
 Integral buffers will be    131072 words long.
 Raffenetti 2 integral format.
 Two-electron integral symmetry is turned off.
 One-electron integrals computed using PRISM.
   1 Symmetry operations used in ECPInt.
 ECPInt:  NShTT=    9591 NPrTT=   29644 LenC2=    9221 LenP2D=   22129.
 LDataN:  DoStor=T MaxTD1= 6 Len=  172
 NBasis=   352 RedAO= T EigKep=  3.29D-05  NBF=   352
 NBsUse=   352 1.00D-06 EigRej= -1.00D+00 NBFU=   352
 The nuclear repulsion energy is now       460.9039474375 hartrees.
 ExpMin= 9.52D-02 ExpMax= 2.70D+04 ExpMxC= 9.22D+02 IAcc=3 IRadAn=         5 AccDes= 0.00D+00
 Harris functional with IExCor=  402 and IRadAn=       5 diagonalized for initial guess.
 HarFok:  IExCor=  402 AccDes= 0.00D+00 IRadAn=         5 IDoV= 1 UseB2=F ITyADJ=14
 ICtDFT=  3500011 ScaDFX=  1.000000  1.000000  1.000000  1.000000
 FoFCou: FMM=F IPFlag=           0 FMFlag=      100000 FMFlg1=           0
         NFxFlg=           0 DoJE=T BraDBF=F KetDBF=T FulRan=T
         wScrn=  0.000000 ICntrl=       500 IOpCl=  0 I1Cent=   200000004 NGrid=           0
         NMat0=    1 NMatS0=      1 NMatT0=    0 NMatD0=    1 NMtDS0=    0 NMtDT0=    0
 Symmetry not used in FoFCou.
 Requested convergence on RMS density matrix=1.00D-08 within 128 cycles.
 Requested convergence on MAX density matrix=1.00D-06.
 Requested convergence on             energy=1.00D-06.
 No special actions if energy rises.
 Integral accuracy reduced to 1.0D-05 until final iterations.
 Initial convergence to 1.0D-05 achieved.  Increase integral accuracy.
 SCF Done:  E(RB3LYP) =  -439.155276787     A.U. after   15 cycles
            NFock= 15  Conv=0.44D-08     -V/T= 2.0049
   1 Symmetry operations used in ECPInt.
 ECPInt:  NShTT=    9591 NPrTT=   29644 LenC2=    9221 LenP2D=   22129.
 LDataN:  DoStor=T MaxTD1= 7 Len=  274
 Calling FoFJK, ICntrl=      2127 FMM=F ISym2X=0 I1Cent= 0 IOpClX= 0 NMat=1 NMatS=1 NMatT=0.
 -------------------------------------------------------------------
 Center     Atomic                   Forces (Hartrees/Bohr)
 Number     Number              X              Y              Z
 -------------------------------------------------------------------
      1        1           0.000446071    0.000134594   -0.000400940
      2        7           0.000653842    0.000014895    0.001006488
      3        6          -0.001155713   -0.000053781   -0.001083560
      4        6          -0.000252833   -0.000017288   -0.001010990
      5        1          -0.000024476   -0.000002008    0.000022195
      6        6          -0.000628917   -0.000034120    0.000600763
      7        6           0.000405773   -0.000185692    0.000417426
      8        6           0.000612053    0.000002127    0.000770898
      9        1           0.000111081    0.000064158   -0.000160846
     10        1          -0.000002892   -0.000189146    0.000014894
     11        1          -0.000067297    0.000050851    0.000106362
     12        6          -0.000216629    0.001052315   -0.001335262
     13        1          -0.000017478   -0.000083785   -0.000131072
     14        6           0.000299244   -0.000672467    0.001254859
     15        1           0.000043419   -0.000008559   -0.000040101
     16        6          -0.000827207    0.001106051   -0.001895848
     17        8           0.000621958   -0.001178147    0.001864735
 -------------------------------------------------------------------
 Cartesian Forces:  Max     0.001895848 RMS     0.000678103
 -----------------------------------------------------------------------------------------------
                       Internal Coordinate Forces (Hartree/Bohr or radian)
  Cent   Atom   N1       Length/X         N2         Alpha/Y        N3         Beta/Z          J
 -----------------------------------------------------------------------------------------------
      1  H 
      2  N        1   0.000401(     1)
      3  C        2  -0.001747(     2)      1   0.001791(    17)
      4  C        2  -0.000477(     3)      1   0.000698(    18)      3  -0.000537(    32)     0
      5  H        3  -0.000031(     4)      2   0.000022(    19)      1  -0.000202(    33)     0
      6  C        3   0.000573(     5)      2  -0.000556(    20)      5  -0.000201(    34)     0
      7  C        4   0.000607(     6)      2  -0.000413(    21)      1  -0.000232(    35)     0
      8  C        4  -0.000680(     7)      2  -0.000712(    22)      7   0.000054(    36)     0
      9  H        6  -0.000063(     8)      3  -0.000384(    23)      2   0.000087(    37)     0
     10  H        8  -0.000091(     9)      4   0.000064(    24)      2   0.000786(    38)     0
     11  H        7   0.000125(    10)      4   0.000013(    25)      2  -0.000086(    39)     0
     12  C        8  -0.000075(    11)      4   0.001375(    26)     10   0.000480(    40)     0
     13  H       12   0.000075(    12)      8  -0.000082(    27)      4   0.000405(    41)     0
     14  C       12   0.001318(    13)      8   0.000413(    28)     13   0.000164(    42)     0
     15  H       14  -0.000051(    14)     12  -0.000039(    29)      8   0.000026(    43)     0
     16  C       14  -0.000098(    15)     12   0.001788(    30)     15  -0.000020(    44)     0
     17  O       16   0.002199(    16)     14  -0.001398(    31)     12  -0.000012(    45)     0
 -----------------------------------------------------------------------------------------------
 Internal  Forces:  Max     0.002199284 RMS     0.000741752

 GradGradGradGradGradGradGradGradGradGradGradGradGradGradGradGradGradGrad
 Berny optimization.
 Search for a local minimum.
 Step number   1 out of a maximum of   55
 All quantities printed in internal units (Hartrees-Bohrs-Radians)
 Second derivative matrix not updated -- first step.
 ITU=  0
     Eigenvalues ---   -0.17182  -0.11662   0.02063   0.02967   0.03635
     Eigenvalues ---    0.04472   0.05270   0.05889   0.07816   0.08430
     Eigenvalues ---    0.11430   0.12611   0.15863   0.18703   0.19214
     Eigenvalues ---    0.19540   0.22619   0.23666   0.24213   0.26131
     Eigenvalues ---    0.30748   0.33989   0.35252   0.35380   0.35611
     Eigenvalues ---    0.36331   0.36419   0.36511   0.37725   0.38933
     Eigenvalues ---    0.45247   0.46847   0.48629   0.49513   0.50611
     Eigenvalues ---    0.51687   0.51845   0.54222   0.55608   0.61938
     Eigenvalues ---    0.66836   1.17207   1.28815   1.86254  20.89090
 RFO step:  Lambda=-1.71821055D-01 EMin=-1.71817386D-01
 I=     1 Eig=   -1.72D-01 Dot1=  1.98D-04
 I=     1 Stepn=  2.50D-01 RXN=   2.50D-01 EDone=F
 I=     2 Eig=   -1.17D-01 Dot1= -2.94D-04
 I=     2 Stepn= -1.25D-01 RXN=   2.80D-01 EDone=F
 Mixed    2 eigenvectors in step.  Raw Step.Grad=  4.92D-04.
 RFO eigenvector is Hessian eigenvector with negative curvature.
 Taking step of  2.80D-01 in eigenvector direction(s).  Step.Grad=  1.26D-04.
 Linear search not attempted -- first point.
 Maximum step size (   0.100) exceeded in Quadratic search.
    -- Step size scaled by   0.358
 Variable       Old X    -DE/DX   Delta X   Delta X   Delta X     New X
                                 (Linear)    (Quad)   (Total)
    R2        1.89887   0.00040   0.00000   0.00000   0.00000   1.89887
    R3        2.58133  -0.00175   0.00000  -0.00075  -0.00075   2.58059
    R4        2.61086  -0.00048   0.00000  -0.00199  -0.00199   2.60888
    R5        2.03432  -0.00003   0.00000  -0.00000  -0.00000   2.03432
    R6        2.59884   0.00057   0.00000   0.00149   0.00149   2.60034
    R7        2.62416   0.00061   0.00000  -0.00045  -0.00045   2.62370
    R8        2.73029  -0.00068   0.00000  -0.00002  -0.00002   2.73027
    R9        2.03568  -0.00006   0.00000  -0.00001  -0.00001   2.03567
   R10        2.05268  -0.00009   0.00000   0.00002   0.00002   2.05270
   R11        2.03290   0.00013   0.00000   0.00000   0.00000   2.03290
   R12        2.54597  -0.00007   0.00000  -0.00004  -0.00004   2.54593
   R13        2.04695   0.00008   0.00000   0.00005   0.00005   2.04699
   R14        2.74767   0.00132   0.00000  -0.00001  -0.00001   2.74766
   R15        2.05062  -0.00005   0.00000  -0.00005  -0.00005   2.05057
   R16        2.49440  -0.00010   0.00000  -0.00027  -0.00027   2.49413
   R17        2.18915   0.00220   0.00000   0.00003   0.00003   2.18918
    A3        2.18298   0.00179   0.00000   0.01762   0.01762   2.20059
    A4        2.16683   0.00070   0.00000  -0.01941  -0.01941   2.14742
    A5        2.11878   0.00002   0.00000   0.00093   0.00093   2.11972
    A6        1.87846  -0.00056   0.00000  -0.00298  -0.00298   1.87548
    A7        1.85194  -0.00041   0.00000   0.00090   0.00090   1.85284
    A8        2.08924  -0.00071   0.00000  -0.01765  -0.01765   2.07159
    A9        2.19664  -0.00038   0.00000  -0.00056  -0.00056   2.19609
   A10        1.99821   0.00006   0.00000  -0.00634  -0.00634   1.99187
   A11        2.19876   0.00001   0.00000   0.00062   0.00062   2.19938
   A12        2.27305   0.00137   0.00000   0.01655   0.01655   2.28961
   A13        2.02821  -0.00008   0.00000  -0.00632  -0.00632   2.02189
   A14        2.29181   0.00041   0.00000   0.01400   0.01400   2.30581
   A15        2.06025  -0.00004   0.00000  -0.00845  -0.00845   2.05181
   A16        2.26117   0.00179   0.00000   0.01629   0.01629   2.27745
   A17        3.07762  -0.00140   0.00000  -0.01056  -0.01056   3.06705
    D4       -3.06445  -0.00054   0.00000  -0.01125  -0.01125  -3.07570
    D5        0.05117  -0.00020   0.00000  -0.01157  -0.01157   0.03960
    D6       -3.13941  -0.00020   0.00000  -0.00764  -0.00764  -3.14704
    D7        3.08874  -0.00023   0.00000   0.02809   0.02809   3.11683
    D8        3.08182   0.00005   0.00000   0.01980   0.01980   3.10162
    D9       -3.12451   0.00009   0.00000   0.00083   0.00083  -3.12368
   D10       -0.36201   0.00079   0.00000   0.04072   0.04072  -0.32129
   D11        3.07805  -0.00009   0.00000  -0.00190  -0.00190   3.07615
   D12       -3.12797   0.00048   0.00000   0.02070   0.02070  -3.10727
   D13        3.06691   0.00040   0.00000   0.03838   0.03838   3.10529
   D14        3.12710   0.00016   0.00000   0.03525   0.03525   3.16235
   D15        2.94536   0.00003   0.00000   0.03033   0.03033   2.97569
   D16        3.02612  -0.00002   0.00000   0.02714   0.02714   3.05326
   D17        3.08767  -0.00001   0.00000  -0.00466  -0.00466   3.08301
         Item               Value     Threshold  Converged?
 Maximum Force            0.002199     0.000450     NO 
 RMS     Force            0.000742     0.000300     NO 
 Maximum Displacement     0.040722     0.001800     NO 
 RMS     Displacement     0.014907     0.001200     NO 
 Predicted change in Energy=-9.800650D-04
 GradGradGradGradGradGradGradGradGradGradGradGradGradGradGradGradGradGrad

 ---------------------------------------------------------------------------------------------------
                            Z-MATRIX (ANGSTROMS AND DEGREES)
   CD    Cent   Atom    N1       Length/X        N2       Alpha/Y        N3        Beta/Z          J
 ---------------------------------------------------------------------------------------------------
      1      1  H 
      2      2  N        1   1.004841(     1)
      3      3  C        2   1.365587(     2)      1  126.085(    17)
      4      4  C        2   1.380559(     3)      1  123.038(    18)      3 -176.225(    32)      0
      5      5  H        3   1.076515(     4)      2  121.451(    19)      1    2.269(    33)      0
      6      6  C        3   1.376039(     5)      2  107.457(    20)      5 -180.312(    34)      0
      7      7  C        4   1.388404(     6)      2  106.160(    21)      1  178.581(    35)      0
      8      8  C        4   1.444799(     7)      2  118.694(    22)      7  177.709(    36)      0
      9      9  H        6   1.077230(     8)      3  125.826(    23)      2 -178.974(    37)      0
     10     10  H        8   1.086243(     9)      4  114.126(    24)      2  -18.408(    38)      0
     11     11  H        7   1.075766(    10)      4  126.015(    25)      2  176.251(    39)      0
     12     12  C        8   1.347247(    11)      4  131.185(    26)     10 -178.033(    40)      0
     13     13  H       12   1.083222(    12)      8  115.846(    27)      4  177.920(    41)      0
     14     14  C       12   1.454000(    13)      8  132.113(    28)     13  181.190(    42)      0
     15     15  H       14   1.085116(    14)     12  117.560(    29)      8  170.494(    43)      0
     16     16  C       14   1.319836(    15)     12  130.488(    30)     15  174.939(    44)      0
     17     17  O       16   1.158463(    16)     14  175.729(    31)     12  176.643(    45)      0
 ---------------------------------------------------------------------------------------------------
                         Z-Matrix orientation:                         
 ---------------------------------------------------------------------
 Center     Atomic      Atomic             Coordinates (Angstroms)
 Number     Number       Type             X           Y           Z
 ---------------------------------------------------------------------
      1          1           0        0.000000    0.000000    0.000000
      2          7           0        0.000000    0.000000    1.004841
      3          6           0        1.103595    0.000000    1.809146
      4          6           0       -1.154822   -0.076206    1.757519
      5          1           0        2.097997    0.036354    1.398380
      6          6           0        0.664514   -0.044810    3.112481
      7          6           0       -0.750633   -0.082626    3.085772
      8          6           0       -2.428506   -0.078083    1.075486
      9          1           0        1.290433   -0.040765    3.989198
     10          1           0       -2.386361    0.292316    0.055216
     11          1           0       -1.398896   -0.077476    3.944260
     12          6           0       -3.659931   -0.426167    1.496801
     13          1           0       -4.459370   -0.296380    0.777480
     14          6           0       -4.147629   -0.935775    2.768244
     15          1           0       -5.222284   -0.992875    2.907287
     16          6           0       -3.493011   -1.441880    3.796494
     17          8           0       -2.994062   -1.891750    4.740265
 ---------------------------------------------------------------------
                    Distance matrix (angstroms):
                    1          2          3          4          5
     1  H    0.000000
     2  N    1.004841   0.000000
     3  C    2.119181   1.365587   0.000000
     4  C    2.104351   1.380559   2.260291   0.000000
     5  H    2.521582   2.134897   1.076515   3.274519   0.000000
     6  C    3.182943   2.210369   1.376039   2.268675   2.235979
     7  C    3.176833   2.213719   2.252723   1.388404   3.313026
     8  C    2.657143   2.430788   3.608337   1.444799   4.539448
     9  H    4.192920   3.251655   2.188423   3.310728   2.714856
    10  H    2.404831   2.584948   3.916824   2.133151   4.688184
    11  H    4.185701   3.256239   3.290467   2.200320   4.326976
    12  C    3.977075   3.717356   4.792740   2.542837   5.777313
    13  H    4.536330   4.474987   5.665576   3.453837   6.595095
    14  C    5.073626   4.603052   5.419492   3.273732   6.467566
    15  H    6.058909   5.646003   6.496804   4.325101   7.544708
    16  C    5.356632   4.698241   5.211272   3.389634   6.260630
    17  O    5.917199   5.147477   5.381540   3.946617   6.388650
                    6          7          8          9         10
     6  C    0.000000
     7  C    1.415904   0.000000
     8  C    3.703678   2.618497   0.000000
     9  H    1.077230   2.232461   4.724576   0.000000
    10  H    4.332246   3.464168   1.086243   5.394995   0.000000
    11  H    2.224990   1.075766   3.047943   2.689955   4.029454
    12  C    4.632135   3.332696   1.347247   5.555779   2.053380
    13  H    5.636461   4.373629   2.064187   6.590956   2.272794
    14  C    4.906020   3.516855   2.560556   5.644847   3.459884
    15  H    5.966181   4.566845   3.463746   6.670273   4.222380
    16  C    4.438996   3.142186   3.224437   4.988146   4.269576
    17  O    4.409767   3.323139   4.127935   4.727277   5.204723
                   11         12         13         14         15
    11  H    0.000000
    12  C    3.350212   0.000000
    13  H    4.409412   1.083222   0.000000
    14  C    3.110502   1.454000   2.114036   0.000000
    15  H    4.065903   2.179811   2.367113   1.085116   0.000000
    16  C    2.503747   2.519548   3.370530   1.319836   1.995666
    17  O    2.543574   3.620963   4.516194   2.476585   3.022046
                   16         17
    16  C    0.000000
    17  O    1.158463   0.000000
 Symmetry turned off by external request.
 Stoichiometry    C8H7NO
 Framework group  C1[X(C8H7NO)]
 Deg. of freedom    45
 Full point group                 C1      NOp   1
 Rotational constants (GHZ):           2.4442519           0.9586650           0.7051362
 Standard basis: def2TZVP (5D, 7F)
 The following finite field(s) will be applied:
 An electric field of             -0.0021 -0.0003  0.0014
   352 basis functions,   566 primitive gaussians,   402 cartesian basis functions
    35 alpha electrons       35 beta electrons
       nuclear repulsion energy       458.8864975822 Hartrees.
 NAtoms=   17 NActive=   17 NUniq=   17 SFac= 1.00D+00 NAtFMM=   60 NAOKFM=F Big=F
 Integral buffers will be    131072 words long.
 Raffenetti 2 integral format.
 Two-electron integral symmetry is turned off.
 One-electron integrals computed using PRISM.
   1 Symmetry operations used in ECPInt.
 ECPInt:  NShTT=    9591 NPrTT=   29644 LenC2=    9202 LenP2D=   22076.
 LDataN:  DoStor=T MaxTD1= 6 Len=  172
 NBasis=   352 RedAO= T EigKep=  3.18D-05  NBF=   352
 NBsUse=   352 1.00D-06 EigRej= -1.00D+00 NBFU=   352
 The nuclear repulsion energy is now       459.8130896228 hartrees.
 Initial guess from the checkpoint file:  "checkpoint.chk"
 B after Tr=     0.068974   -0.523012    0.056684
         Rot=    0.997141    0.069644    0.020367    0.021072 Ang=   8.67 deg.
 ExpMin= 9.52D-02 ExpMax= 2.70D+04 ExpMxC= 9.22D+02 IAcc=2 IRadAn=         4 AccDes= 0.00D+00
 Harris functional with IExCor=  402 and IRadAn=       4 diagonalized for initial guess.
 HarFok:  IExCor=  402 AccDes= 0.00D+00 IRadAn=         4 IDoV= 1 UseB2=F ITyADJ=14
 ICtDFT=  3500011 ScaDFX=  1.000000  1.000000  1.000000  1.000000
 FoFCou: FMM=F IPFlag=           0 FMFlag=      100000 FMFlg1=           0
         NFxFlg=           0 DoJE=T BraDBF=F KetDBF=T FulRan=T
         wScrn=  0.000000 ICntrl=       500 IOpCl=  0 I1Cent=   200000004 NGrid=           0
         NMat0=    1 NMatS0=      1 NMatT0=    0 NMatD0=    1 NMtDS0=    0 NMtDT0=    0
 Symmetry not used in FoFCou.
 Requested convergence on RMS density matrix=1.00D-08 within 128 cycles.
 Requested convergence on MAX density matrix=1.00D-06.
 Requested convergence on             energy=1.00D-06.
 No special actions if energy rises.
 Integral accuracy reduced to 1.0D-05 until final iterations.
 Initial convergence to 1.0D-05 achieved.  Increase integral accuracy.
 SCF Done:  E(RB3LYP) =  -439.154899713     A.U. after   14 cycles
            NFock= 14  Conv=0.44D-08     -V/T= 2.0049
   1 Symmetry operations used in ECPInt.
 ECPInt:  NShTT=    9591 NPrTT=   29644 LenC2=    9202 LenP2D=   22076.
 LDataN:  DoStor=T MaxTD1= 7 Len=  274
 Calling FoFJK, ICntrl=      2127 FMM=F ISym2X=0 I1Cent= 0 IOpClX= 0 NMat=1 NMatS=1 NMatT=0.
 -------------------------------------------------------------------
 Center     Atomic                   Forces (Hartrees/Bohr)
 Number     Number              X              Y              Z
 -------------------------------------------------------------------
      1        1           0.002538000   -0.000389693   -0.000421338
      2        7           0.000018565   -0.001475639    0.000388917
      3        6          -0.002013807    0.000825721   -0.001291104
      4        6          -0.001825151    0.002062019   -0.001721077
      5        1          -0.000032628    0.000022976    0.000174313
      6        6          -0.001284383    0.000618411    0.000897697
      7        6           0.000760120   -0.001516958    0.000428299
      8        6           0.000825216    0.001739203    0.001999994
      9        1           0.000147970    0.000177475   -0.000148638
     10        1           0.000645964   -0.002266043   -0.000723809
     11        1           0.001419502    0.000197024   -0.000094070
     12        6          -0.001407860    0.002176546   -0.000120582
     13        1           0.000067620    0.000503140    0.000162354
     14        6           0.001695870   -0.001578444    0.000169503
     15        1          -0.000084925   -0.000060070    0.000181733
     16        6          -0.002464703    0.000765474   -0.003366808
     17        8           0.000994629   -0.001801139    0.003484615
 -------------------------------------------------------------------
 Cartesian Forces:  Max     0.003484615 RMS     0.001362896
 -----------------------------------------------------------------------------------------------
                       Internal Coordinate Forces (Hartree/Bohr or radian)
  Cent   Atom   N1       Length/X         N2         Alpha/Y        N3         Beta/Z          J
 -----------------------------------------------------------------------------------------------
      1  H 
      2  N        1   0.000421(     1)
      3  C        2  -0.002789(     2)      1   0.006129(    17)
      4  C        2  -0.000318(     3)      1   0.008535(    18)      3  -0.003411(    32)     0
      5  H        3  -0.000096(     4)      2   0.000301(    19)      1  -0.002146(    33)     0
      6  C        3   0.001046(     5)      2  -0.001724(    20)      5  -0.002197(    34)     0
      7  C        4   0.000960(     6)      2  -0.007209(    21)      1  -0.007007(    35)     0
      8  C        4  -0.001083(     7)      2  -0.000432(    22)      7  -0.003425(    36)     0
      9  H        6  -0.000034(     8)      3  -0.000436(    23)      2   0.000278(    37)     0
     10  H        8  -0.000068(     9)      4  -0.000443(    24)      2  -0.001758(    38)     0
     11  H        7  -0.000930(    10)      4   0.002184(    25)      2  -0.000348(    39)     0
     12  C        8   0.001255(    11)      4   0.004934(    26)     10  -0.006356(    40)     0
     13  H       12  -0.000097(    12)      8  -0.000224(    27)      4  -0.007746(    41)     0
     14  C       12   0.001300(    13)      8   0.004713(    28)     13  -0.006802(    42)     0
     15  H       14   0.000111(    14)     12   0.000364(    29)      8  -0.002256(    43)     0
     16  C       14  -0.000240(    15)     12   0.005357(    30)     15  -0.002234(    44)     0
     17  O       16   0.003967(    16)     14  -0.001672(    31)     12   0.000039(    45)     0
 -----------------------------------------------------------------------------------------------
 Internal  Forces:  Max     0.008535251 RMS     0.003406466

 GradGradGradGradGradGradGradGradGradGradGradGradGradGradGradGradGradGrad
 Berny optimization.
 Search for a local minimum.
 Step number   2 out of a maximum of   55
 All quantities printed in internal units (Hartrees-Bohrs-Radians)
 Update second derivatives using D2CorN and points    2    1
 ITU=  0  0
     Eigenvalues ---   -0.13196   0.01953   0.02952   0.03630   0.04188
     Eigenvalues ---    0.05131   0.05885   0.07135   0.07892   0.09333
     Eigenvalues ---    0.11448   0.13975   0.16869   0.18994   0.19216
     Eigenvalues ---    0.19541   0.22621   0.23729   0.24214   0.26142
     Eigenvalues ---    0.30749   0.34005   0.35252   0.35380   0.35611
     Eigenvalues ---    0.36331   0.36419   0.36522   0.37725   0.38935
     Eigenvalues ---    0.45392   0.46847   0.48632   0.49531   0.50618
     Eigenvalues ---    0.51689   0.51861   0.54223   0.55617   0.61938
     Eigenvalues ---    0.66836   1.17261   1.28822   1.86274  20.89102
 RFO step:  Lambda=-1.32027845D-01 EMin=-1.31961244D-01
 I=     1 Eig=   -1.32D-01 Dot1= -7.41D-04
 I=     1 Stepn= -2.50D-01 RXN=   2.50D-01 EDone=F
 Mixed    1 eigenvectors in step.  Raw Step.Grad=  7.41D-04.
 RFO eigenvector is Hessian eigenvector with negative curvature.
 Taking step of  2.50D-01 in eigenvector direction(s).  Step.Grad=  4.16D-04.
 Quartic linear search produced a step of -0.85877.
 Maximum step size (   0.100) exceeded in Quadratic search.
    -- Step size scaled by   0.400
 Variable       Old X    -DE/DX   Delta X   Delta X   Delta X     New X
                                 (Linear)    (Quad)   (Total)
    R2        1.89887   0.00042  -0.00000   0.00000   0.00000   1.89888
    R3        2.58059  -0.00279   0.00064  -0.00112  -0.00048   2.58011
    R4        2.60888  -0.00032   0.00170  -0.00241  -0.00070   2.60818
    R5        2.03432  -0.00010   0.00000  -0.00001  -0.00001   2.03431
    R6        2.60034   0.00105  -0.00128   0.00178   0.00050   2.60083
    R7        2.62370   0.00096   0.00039  -0.00049  -0.00010   2.62360
    R8        2.73027  -0.00108   0.00002  -0.00016  -0.00015   2.73013
    R9        2.03567  -0.00003   0.00001  -0.00001   0.00000   2.03567
   R10        2.05270  -0.00007  -0.00002   0.00007   0.00005   2.05275
   R11        2.03290  -0.00093  -0.00000  -0.00014  -0.00014   2.03276
   R12        2.54593   0.00125   0.00003   0.00009   0.00013   2.54605
   R13        2.04699  -0.00010  -0.00004   0.00002  -0.00002   2.04697
   R14        2.74766   0.00130   0.00001  -0.00019  -0.00018   2.74748
   R15        2.05057   0.00011   0.00004   0.00000   0.00005   2.05062
   R16        2.49413  -0.00024   0.00023  -0.00022   0.00001   2.49414
   R17        2.18918   0.00397  -0.00003   0.00013   0.00010   2.18928
    A3        2.20059   0.00613  -0.01513   0.02113   0.00600   2.20659
    A4        2.14742   0.00854   0.01667  -0.02245  -0.00578   2.14164
    A5        2.11972   0.00030  -0.00080   0.00132   0.00052   2.12024
    A6        1.87548  -0.00172   0.00256  -0.00389  -0.00133   1.87415
    A7        1.85284  -0.00721  -0.00077   0.00088   0.00011   1.85295
    A8        2.07159  -0.00043   0.01516  -0.02119  -0.00603   2.06556
    A9        2.19609  -0.00044   0.00048  -0.00082  -0.00034   2.19574
   A10        1.99187  -0.00044   0.00544  -0.01354  -0.00810   1.98377
   A11        2.19938   0.00218  -0.00053   0.00036  -0.00017   2.19921
   A12        2.28961   0.00493  -0.01421   0.03431   0.02010   2.30970
   A13        2.02189  -0.00022   0.00542  -0.01393  -0.00850   2.01339
   A14        2.30581   0.00471  -0.01202   0.03026   0.01823   2.32404
   A15        2.05181   0.00036   0.00725  -0.01424  -0.00699   2.04482
   A16        2.27745   0.00536  -0.01399   0.02257   0.00858   2.28604
   A17        3.06705  -0.00167   0.00907  -0.01330  -0.00423   3.06283
    D4       -3.07570  -0.00341   0.00966  -0.04717  -0.03751  -3.11321
    D5        0.03960  -0.00215   0.00994  -0.00248   0.00745   0.04705
    D6       -3.14704  -0.00220   0.00656   0.00511   0.01167  -3.13537
    D7        3.11683  -0.00701  -0.02412  -0.00814  -0.03227   3.08456
    D8        3.10162  -0.00342  -0.01700  -0.02921  -0.04621   3.05540
    D9       -3.12368   0.00028  -0.00071  -0.00517  -0.00588  -3.12956
   D10       -0.32129  -0.00176  -0.03497   0.01889  -0.01608  -0.33736
   D11        3.07615  -0.00035   0.00163   0.00318   0.00481   3.08096
   D12       -3.10727  -0.00636  -0.01778   0.01382  -0.00395  -3.11122
   D13        3.10529  -0.00775  -0.03296  -0.01877  -0.05174   3.05356
   D14        3.16235  -0.00680  -0.03027  -0.01106  -0.04134   3.12102
   D15        2.97569  -0.00226  -0.02605  -0.02522  -0.05126   2.92443
   D16        3.05326  -0.00223  -0.02331  -0.01809  -0.04140   3.01186
   D17        3.08301   0.00004   0.00400   0.00351   0.00752   3.09053
         Item               Value     Threshold  Converged?
 Maximum Force            0.008535     0.000450     NO 
 RMS     Force            0.003406     0.000300     NO 
 Maximum Displacement     0.051737     0.001800     NO 
 RMS     Displacement     0.018266     0.001200     NO 
 Predicted change in Energy=-1.396758D-03
 GradGradGradGradGradGradGradGradGradGradGradGradGradGradGradGradGradGrad

 ---------------------------------------------------------------------------------------------------
                            Z-MATRIX (ANGSTROMS AND DEGREES)
   CD    Cent   Atom    N1       Length/X        N2       Alpha/Y        N3        Beta/Z          J
 ---------------------------------------------------------------------------------------------------
      1      1  H 
      2      2  N        1   1.004842(     1)
      3      3  C        2   1.365333(     2)      1  126.428(    17)
      4      4  C        2   1.380188(     3)      1  122.707(    18)      3 -178.374(    32)      0
      5      5  H        3   1.076510(     4)      2  121.481(    19)      1    2.696(    33)      0
      6      6  C        3   1.376302(     5)      2  107.381(    20)      5 -179.644(    34)      0
      7      7  C        4   1.388351(     6)      2  106.166(    21)      1  176.732(    35)      0
      8      8  C        4   1.444721(     7)      2  118.348(    22)      7  175.062(    36)      0
      9      9  H        6   1.077230(     8)      3  125.807(    23)      2 -179.311(    37)      0
     10     10  H        8   1.086271(     9)      4  113.662(    24)      2  -19.330(    38)      0
     11     11  H        7   1.075690(    10)      4  126.006(    25)      2  176.526(    39)      0
     12     12  C        8   1.347314(    11)      4  132.336(    26)     10 -178.260(    40)      0
     13     13  H       12   1.083210(    12)      8  115.359(    27)      4  174.956(    41)      0
     14     14  C       12   1.453904(    13)      8  133.158(    28)     13  178.821(    42)      0
     15     15  H       14   1.085141(    14)     12  117.159(    29)      8  167.557(    43)      0
     16     16  C       14   1.319842(    15)     12  130.980(    30)     15  172.567(    44)      0
     17     17  O       16   1.158517(    16)     14  175.487(    31)     12  177.074(    45)      0
 ---------------------------------------------------------------------------------------------------
                         Z-Matrix orientation:                         
 ---------------------------------------------------------------------
 Center     Atomic      Atomic             Coordinates (Angstroms)
 Number     Number       Type             X           Y           Z
 ---------------------------------------------------------------------
      1          1           0        0.000000    0.000000    0.000000
      2          7           0        0.000000    0.000000    1.004842
      3          6           0        1.098547    0.000000    1.815601
      4          6           0       -1.160886   -0.032962    1.750615
      5          1           0        2.095424    0.043178    1.411563
      6          6           0        0.650489   -0.069934    3.115047
      7          6           0       -0.764796   -0.097755    3.079687
      8          6           0       -2.422745    0.112765    1.062361
      9          1           0        1.270496   -0.077568    3.995931
     10          1           0       -2.332527    0.559858    0.076484
     11          1           0       -1.416744   -0.084445    3.935196
     12          6           0       -3.689988   -0.171562    1.420840
     13          1           0       -4.451452    0.130281    0.712032
     14          6           0       -4.271632   -0.833848    2.577086
     15          1           0       -5.345067   -0.746570    2.709941
     16          6           0       -3.739547   -1.655215    3.462651
     17          8           0       -3.352904   -2.376037    4.283068
 ---------------------------------------------------------------------
                    Distance matrix (angstroms):
                    1          2          3          4          5
     1  H    0.000000
     2  N    1.004842   0.000000
     3  C    2.122077   1.365333   0.000000
     4  C    2.100808   1.380188   2.260607   0.000000
     5  H    2.526891   2.134968   1.076510   3.274799   0.000000
     6  C    3.183008   2.209296   1.376302   2.268065   2.236624
     7  C    3.174735   2.213470   2.253778   1.388351   3.314115
     8  C    2.647833   2.426050   3.602719   1.444721   4.532178
     9  H    4.193762   3.250660   2.188476   3.309842   2.715519
    10  H    2.399994   2.572153   3.887188   2.127650   4.653616
    11  H    4.183307   3.255958   3.290365   2.200115   4.326700
    12  C    3.957807   3.717325   4.807841   2.554275   5.789404
    13  H    4.509921   4.462974   5.660152   3.454436   6.584718
    14  C    5.058015   4.627536   5.487621   3.316808   6.532000
    15  H    6.039113   5.659900   6.548081   4.351656   7.594103
    16  C    5.358535   4.771244   5.372119   3.494605   6.413921
    17  O    5.935671   5.256832   5.616882   4.087575   6.616829
                    6          7          8          9         10
     6  C    0.000000
     7  C    1.416000   0.000000
     8  C    3.700225   2.619679   0.000000
     9  H    1.077230   2.232111   4.720391   0.000000
    10  H    4.304403   3.451010   1.086271   5.361917   0.000000
    11  H    2.224029   1.075690   3.050264   2.687935   4.017891
    12  C    4.660516   3.363625   1.347314   5.589842   2.045720
    13  H    5.643081   4.387394   2.058808   6.600597   2.253509
    14  C    5.010014   3.618334   2.570769   5.770638   3.457681
    15  H    6.047201   4.640750   3.463083   6.772518   4.209187
    16  C    4.680423   3.379570   3.259005   5.279573   4.283968
    17  O    4.765453   3.651986   4.175200   5.171193   5.230297
                   11         12         13         14         15
    11  H    0.000000
    12  C    3.390754   0.000000
    13  H    4.432194   1.083210   0.000000
    14  C    3.249069   1.453904   2.107203   0.000000
    15  H    4.167899   2.175247   2.357765   1.085141   0.000000
    16  C    2.843595   2.524415   3.355698   1.319842   1.992462
    17  O    3.020120   3.628455   4.498970   2.476446   3.016389
                   16         17
    16  C    0.000000
    17  O    1.158517   0.000000
 Symmetry turned off by external request.
 Stoichiometry    C8H7NO
 Framework group  C1[X(C8H7NO)]
 Deg. of freedom    45
 Full point group                 C1      NOp   1
 Rotational constants (GHZ):           2.4817684           0.8889580           0.6841030
 Standard basis: def2TZVP (5D, 7F)
 The following finite field(s) will be applied:
 An electric field of             -0.0021 -0.0003  0.0014
   352 basis functions,   566 primitive gaussians,   402 cartesian basis functions
    35 alpha electrons       35 beta electrons
       nuclear repulsion energy       454.9700568202 Hartrees.
 NAtoms=   17 NActive=   17 NUniq=   17 SFac= 1.00D+00 NAtFMM=   60 NAOKFM=F Big=F
 Integral buffers will be    131072 words long.
 Raffenetti 2 integral format.
 Two-electron integral symmetry is turned off.
 One-electron integrals computed using PRISM.
   1 Symmetry operations used in ECPInt.
 ECPInt:  NShTT=    9591 NPrTT=   29644 LenC2=    9170 LenP2D=   21963.
 LDataN:  DoStor=T MaxTD1= 6 Len=  172
 NBasis=   352 RedAO= T EigKep=  3.49D-05  NBF=   352
 NBsUse=   352 1.00D-06 EigRej= -1.00D+00 NBFU=   352
 The nuclear repulsion energy is now       455.8989537088 hartrees.
 Lowest energy guess from the checkpoint file:  "checkpoint.chk"
 B after Tr=     0.078810    0.010481    0.057384
         Rot=    0.998550   -0.006747    0.032258    0.042562 Ang=  -6.17 deg.
 B after Tr=     0.031813    0.545119    0.082976
         Rot=    0.996783   -0.076559    0.015340    0.018078 Ang=  -9.19 deg.
 Requested convergence on RMS density matrix=1.00D-08 within 128 cycles.
 Requested convergence on MAX density matrix=1.00D-06.
 Requested convergence on             energy=1.00D-06.
 No special actions if energy rises.
 Integral accuracy reduced to 1.0D-05 until final iterations.
 Initial convergence to 1.0D-05 achieved.  Increase integral accuracy.
 SCF Done:  E(RB3LYP) =  -439.154041636     A.U. after   14 cycles
            NFock= 14  Conv=0.30D-08     -V/T= 2.0049
   1 Symmetry operations used in ECPInt.
 ECPInt:  NShTT=    9591 NPrTT=   29644 LenC2=    9170 LenP2D=   21963.
 LDataN:  DoStor=T MaxTD1= 7 Len=  274
 Calling FoFJK, ICntrl=      2127 FMM=F ISym2X=0 I1Cent= 0 IOpClX= 0 NMat=1 NMatS=1 NMatT=0.
 -------------------------------------------------------------------
 Center     Atomic                   Forces (Hartrees/Bohr)
 Number     Number              X              Y              Z
 -------------------------------------------------------------------
      1        1           0.003158098    0.000991858   -0.000419073
      2        7          -0.000573968    0.004331116    0.000533420
      3        6          -0.001824527   -0.003301835   -0.001210169
      4        6          -0.000949352   -0.003046450   -0.001044403
      5        1           0.000003118   -0.000914022    0.000181173
      6        6          -0.001076988    0.000614110    0.000882854
      7        6           0.000418351    0.001488810    0.000146296
      8        6          -0.000915351   -0.000811347    0.001247541
      9        1           0.000200071   -0.000100203   -0.000142571
     10        1           0.000599039   -0.000051745   -0.000146735
     11        1          -0.000990849   -0.000669551    0.000589789
     12        6          -0.000793621    0.000209980   -0.001772286
     13        1          -0.000006949    0.000186629   -0.000434581
     14        6           0.001393116   -0.000937086    0.001692547
     15        1          -0.000396438   -0.000142466    0.000414231
     16        6          -0.000665601    0.003877227   -0.002562702
     17        8           0.002421850   -0.001725024    0.002044669
 -------------------------------------------------------------------
 Cartesian Forces:  Max     0.004331116 RMS     0.001491755
 -----------------------------------------------------------------------------------------------
                       Internal Coordinate Forces (Hartree/Bohr or radian)
  Cent   Atom   N1       Length/X         N2         Alpha/Y        N3         Beta/Z          J
 -----------------------------------------------------------------------------------------------
      1  H 
      2  N        1   0.000419(     1)
      3  C        2  -0.002343(     2)      1   0.004905(    17)
      4  C        2   0.000037(     3)      1   0.009224(    18)      3   0.009360(    32)     0
      5  H        3  -0.000102(     4)      2   0.000389(    19)      1  -0.002926(    33)     0
      6  C        3   0.000958(     5)      2  -0.001016(    20)      5  -0.001353(    34)     0
      7  C        4   0.000503(     6)      2   0.002797(    21)      1   0.009782(    35)     0
      8  C        4  -0.001598(     7)      2   0.011466(    22)      7   0.008077(    36)     0
      9  H        6  -0.000001(     8)      3  -0.000488(    23)      2  -0.000189(    37)     0
     10  H        8   0.000162(     9)      4  -0.001173(    24)      2   0.005248(    38)     0
     11  H        7   0.001061(    10)      4  -0.000781(    25)      2   0.001167(    39)     0
     12  C        8  -0.002311(    11)      4  -0.015732(    26)     10   0.004920(    40)     0
     13  H       12   0.000341(    12)      8  -0.000667(    27)      4   0.006309(    41)     0
     14  C       12  -0.000326(    13)      8  -0.017469(    28)     13   0.006252(    42)     0
     15  H       14   0.000431(    14)     12   0.000820(    29)      8   0.003970(    43)     0
     16  C       14  -0.000979(    15)     12  -0.007705(    30)     15   0.004068(    44)     0
     17  O       16   0.003330(    16)     14   0.002854(    31)     12  -0.000084(    45)     0
 -----------------------------------------------------------------------------------------------
 Internal  Forces:  Max     0.017468525 RMS     0.005425737

 GradGradGradGradGradGradGradGradGradGradGradGradGradGradGradGradGradGrad
 Berny optimization.
 Search for a local minimum.
 Step number   3 out of a maximum of   55
 All quantities printed in internal units (Hartrees-Bohrs-Radians)
 Update second derivatives using D2CorN and points    3    2    1
 ITU=  0  0  0
 Energy rises -- skip Quadratic search.
 Quartic linear search produced a step of -0.85877.
 Variable       Old X    -DE/DX   Delta X   Delta X   Delta X     New X
                                 (Linear)    (Quad)   (Total)
    R2        1.89887   0.00042  -0.00000   0.00000  -0.00000   1.89887
    R3        2.58059  -0.00279   0.00064   0.00000   0.00064   2.58123
    R4        2.60888  -0.00032   0.00170   0.00000   0.00170   2.61058
    R5        2.03432  -0.00010   0.00000   0.00000   0.00000   2.03432
    R6        2.60034   0.00105  -0.00128   0.00000  -0.00128   2.59905
    R7        2.62370   0.00096   0.00039   0.00000   0.00039   2.62409
    R8        2.73027  -0.00108   0.00002   0.00000   0.00002   2.73029
    R9        2.03567  -0.00003   0.00001   0.00000   0.00001   2.03568
   R10        2.05270  -0.00007  -0.00002   0.00000  -0.00002   2.05268
   R11        2.03290  -0.00093  -0.00000   0.00000  -0.00000   2.03290
   R12        2.54593   0.00125   0.00003   0.00000   0.00003   2.54596
   R13        2.04699  -0.00010  -0.00004   0.00000  -0.00004   2.04695
   R14        2.74766   0.00130   0.00001   0.00000   0.00001   2.74767
   R15        2.05057   0.00011   0.00004   0.00000   0.00004   2.05062
   R16        2.49413  -0.00024   0.00023   0.00000   0.00023   2.49436
   R17        2.18918   0.00397  -0.00003   0.00000  -0.00003   2.18915
    A3        2.20059   0.00613  -0.01513   0.00000  -0.01513   2.18546
    A4        2.14742   0.00854   0.01667   0.00000   0.01667   2.16409
    A5        2.11972   0.00030  -0.00080   0.00000  -0.00080   2.11892
    A6        1.87548  -0.00172   0.00256   0.00000   0.00256   1.87804
    A7        1.85284  -0.00721  -0.00077   0.00000  -0.00077   1.85207
    A8        2.07159  -0.00043   0.01516   0.00000   0.01516   2.08675
    A9        2.19609  -0.00044   0.00048   0.00000   0.00048   2.19656
   A10        1.99187  -0.00044   0.00544   0.00000   0.00544   1.99732
   A11        2.19938   0.00218  -0.00053   0.00000  -0.00053   2.19885
   A12        2.28961   0.00493  -0.01421   0.00000  -0.01421   2.27539
   A13        2.02189  -0.00022   0.00542   0.00000   0.00542   2.02731
   A14        2.30581   0.00471  -0.01202   0.00000  -0.01202   2.29378
   A15        2.05181   0.00036   0.00725   0.00000   0.00725   2.05906
   A16        2.27745   0.00536  -0.01399   0.00000  -0.01399   2.26347
   A17        3.06705  -0.00167   0.00907   0.00000   0.00907   3.07613
    D4       -3.07570  -0.00341   0.00966   0.00000   0.00966  -3.06604
    D5        0.03960  -0.00215   0.00994   0.00000   0.00994   0.04953
    D6       -3.14704  -0.00220   0.00656   0.00000   0.00656  -3.14049
    D7        3.11683  -0.00701  -0.02412   0.00000  -0.02412   3.09270
    D8        3.10162  -0.00342  -0.01700   0.00000  -0.01700   3.08462
    D9       -3.12368   0.00028  -0.00071   0.00000  -0.00071  -3.12439
   D10       -0.32129  -0.00176  -0.03497   0.00000  -0.03497  -0.35626
   D11        3.07615  -0.00035   0.00163   0.00000   0.00163   3.07778
   D12       -3.10727  -0.00636  -0.01778   0.00000  -0.01778  -3.12505
   D13        3.10529  -0.00775  -0.03296   0.00000  -0.03296   3.07233
   D14        3.16235  -0.00680  -0.03027   0.00000  -0.03027   3.13208
   D15        2.97569  -0.00226  -0.02605   0.00000  -0.02605   2.94964
   D16        3.05326  -0.00223  -0.02331   0.00000  -0.02331   3.02996
   D17        3.08301   0.00004   0.00400   0.00000   0.00400   3.08701
         Item               Value     Threshold  Converged?
 Maximum Force            0.017469     0.000450     NO 
 RMS     Force            0.005426     0.000300     NO 
 Maximum Displacement     0.034971     0.001800     NO 
 RMS     Displacement     0.012802     0.001200     NO 
 Predicted change in Energy=-2.791500D-05
 GradGradGradGradGradGradGradGradGradGradGradGradGradGradGradGradGradGrad

 ---------------------------------------------------------------------------------------------------
                            Z-MATRIX (ANGSTROMS AND DEGREES)
   CD    Cent   Atom    N1       Length/X        N2       Alpha/Y        N3        Beta/Z          J
 ---------------------------------------------------------------------------------------------------
      1      1  H 
      2      2  N        1   1.004841(     1)
      3      3  C        2   1.365926(     2)      1  125.218(    17)
      4      4  C        2   1.381461(     3)      1  123.993(    18)      3 -175.671(    32)      0
      5      5  H        3   1.076516(     4)      2  121.405(    19)      1    2.838(    33)      0
      6      6  C        3   1.375360(     5)      2  107.604(    20)      5 -179.937(    34)      0
      7      7  C        4   1.388610(     6)      2  106.116(    21)      1  177.199(    35)      0
      8      8  C        4   1.444808(     7)      2  119.562(    22)      7  176.735(    36)      0
      9      9  H        6   1.077235(     8)      3  125.854(    23)      2 -179.014(    37)      0
     10     10  H        8   1.086233(     9)      4  114.438(    24)      2  -20.412(    38)      0
     11     11  H        7   1.075765(    10)      4  125.985(    25)      2  176.344(    39)      0
     12     12  C        8   1.347264(    11)      4  130.370(    26)     10 -179.052(    40)      0
     13     13  H       12   1.083200(    12)      8  116.157(    27)      4  176.032(    41)      0
     14     14  C       12   1.454004(    13)      8  131.424(    28)     13  179.455(    42)      0
     15     15  H       14   1.085139(    14)     12  117.976(    29)      8  169.002(    43)      0
     16     16  C       14   1.319959(    15)     12  129.687(    30)     15  173.604(    44)      0
     17     17  O       16   1.158449(    16)     14  176.249(    31)     12  176.873(    45)      0
 ---------------------------------------------------------------------------------------------------
                         Z-Matrix orientation:                         
 ---------------------------------------------------------------------
 Center     Atomic      Atomic             Coordinates (Angstroms)
 Number     Number       Type             X           Y           Z
 ---------------------------------------------------------------------
      1          1           0        0.000000    0.000000    0.000000
      2          7           0        0.000000    0.000000    1.004841
      3          6           0        1.115914    0.000000    1.792553
      4          6           0       -1.142109   -0.086455    1.777206
      5          1           0        2.103412    0.045492    1.366330
      6          6           0        0.700694   -0.066357    3.102058
      7          6           0       -0.713014   -0.119352    3.097446
      8          6           0       -2.438147   -0.051387    1.139613
      9          1           0        1.341630   -0.068436    3.967871
     10          1           0       -2.437473    0.382498    0.143799
     11          1           0       -1.345496   -0.129571    3.967579
     12          6           0       -3.642867   -0.453829    1.588848
     13          1           0       -4.485414   -0.257974    0.936868
     14          6           0       -4.035736   -1.129955    2.814668
     15          1           0       -5.094444   -1.193586    3.044049
     16          6           0       -3.299460   -1.802298    3.679621
     17          8           0       -2.715586   -2.401373    4.480998
 ---------------------------------------------------------------------
                    Distance matrix (angstroms):
                    1          2          3          4          5
     1  H    0.000000
     2  N    1.004841   0.000000
     3  C    2.111519   1.365926   0.000000
     4  C    2.114320   1.381461   2.259730   0.000000
     5  H    2.508639   2.134733   1.076516   3.274086   0.000000
     6  C    3.180903   2.212170   1.375360   2.269705   2.234476
     7  C    3.180692   2.213962   2.249882   1.388610   3.310013
     8  C    2.691825   2.442410   3.613907   1.444808   4.548246
     9  H    4.189111   3.253337   2.188067   3.311842   2.713173
    10  H    2.471489   2.613231   3.935894   2.136798   4.714636
    11  H    4.191519   3.256526   3.287258   2.200217   4.323437
    12  C    4.000110   3.717190   4.784711   2.534607   5.772223
    13  H    4.589468   4.493341   5.672180   3.451561   6.609778
    14  C    5.048398   4.565024   5.372246   3.246274   6.416269
    15  H    6.053449   5.615726   6.446661   4.295530   7.493943
    16  C    5.260640   4.614018   5.128824   3.349248   6.160899
    17  O    5.763709   5.022416   5.260677   3.891678   6.237871
                    6          7          8          9         10
     6  C    0.000000
     7  C    1.414708   0.000000
     8  C    3.701856   2.610328   0.000000
     9  H    1.077235   2.231993   4.720810   0.000000
    10  H    4.335996   3.456826   1.086233   5.395228   0.000000
    11  H    2.222614   1.075765   3.032720   2.687821   4.009479
    12  C    4.615892   3.312368   1.347264   5.536559   2.059267
    13  H    5.623209   4.349519   2.067628   6.570947   2.287624
    14  C    4.862880   3.484504   2.553705   5.601140   3.460564
    15  H    5.904035   4.511514   3.462284   6.598671   4.237332
    16  C    4.398671   3.140214   3.202997   4.962770   4.244808
    17  O    4.361735   3.336484   4.094418   4.708172   5.161257
                   11         12         13         14         15
    11  H    0.000000
    12  C    3.322863   0.000000
    13  H    4.365865   1.083200   0.000000
    14  C    3.093116   1.454004   2.118654   0.000000
    15  H    4.004953   2.184474   2.384638   1.085139   0.000000
    16  C    2.588226   2.511500   3.363647   1.319959   1.999112
    17  O    2.702190   3.607951   4.504144   2.477086   3.030270
                   16         17
    16  C    0.000000
    17  O    1.158449   0.000000
 Symmetry turned off by external request.
 Stoichiometry    C8H7NO
 Framework group  C1[X(C8H7NO)]
 Deg. of freedom    45
 Full point group                 C1      NOp   1
 Rotational constants (GHZ):           2.4094160           0.9736981           0.7236616
 Standard basis: def2TZVP (5D, 7F)
 The following finite field(s) will be applied:
 An electric field of             -0.0021 -0.0003  0.0014
   352 basis functions,   566 primitive gaussians,   402 cartesian basis functions
    35 alpha electrons       35 beta electrons
       nuclear repulsion energy       459.8694284781 Hartrees.
 NAtoms=   17 NActive=   17 NUniq=   17 SFac= 1.00D+00 NAtFMM=   60 NAOKFM=F Big=F
 Integral buffers will be    131072 words long.
 Raffenetti 2 integral format.
 Two-electron integral symmetry is turned off.
 One-electron integrals computed using PRISM.
   1 Symmetry operations used in ECPInt.
 ECPInt:  NShTT=    9591 NPrTT=   29644 LenC2=    9214 LenP2D=   22116.
 LDataN:  DoStor=T MaxTD1= 6 Len=  172
 NBasis=   352 RedAO= T EigKep=  3.27D-05  NBF=   352
 NBsUse=   352 1.00D-06 EigRej= -1.00D+00 NBFU=   352
 The nuclear repulsion energy is now       460.7793223550 hartrees.
 Lowest energy guess from the checkpoint file:  "checkpoint.chk"
 B after Tr=     0.010689   -0.074825    0.003052
         Rot=    0.999943    0.009953    0.002728    0.002828 Ang=   1.23 deg.
 B after Tr=    -0.070558   -0.094452   -0.049470
         Rot=    0.998637    0.016731   -0.030040   -0.039270 Ang=   5.98 deg.
 Requested convergence on RMS density matrix=1.00D-08 within 128 cycles.
 Requested convergence on MAX density matrix=1.00D-06.
 Requested convergence on             energy=1.00D-06.
 No special actions if energy rises.
 Integral accuracy reduced to 1.0D-05 until final iterations.
 Initial convergence to 1.0D-05 achieved.  Increase integral accuracy.
 SCF Done:  E(RB3LYP) =  -439.155289417     A.U. after   12 cycles
            NFock= 12  Conv=0.61D-08     -V/T= 2.0049
   1 Symmetry operations used in ECPInt.
 ECPInt:  NShTT=    9591 NPrTT=   29644 LenC2=    9214 LenP2D=   22116.
 LDataN:  DoStor=T MaxTD1= 7 Len=  274
 Calling FoFJK, ICntrl=      2127 FMM=F ISym2X=0 I1Cent= 0 IOpClX= 0 NMat=1 NMatS=1 NMatT=0.
 -------------------------------------------------------------------
 Center     Atomic                   Forces (Hartrees/Bohr)
 Number     Number              X              Y              Z
 -------------------------------------------------------------------
      1        1           0.000740002    0.000060681   -0.000403746
      2        7           0.000555033   -0.000196256    0.000913249
      3        6          -0.001284060    0.000070024   -0.001107783
      4        6          -0.000494466    0.000279351   -0.001101981
      5        1          -0.000025585    0.000001795    0.000044354
      6        6          -0.000709993    0.000054215    0.000648111
      7        6           0.000443814   -0.000360035    0.000414194
      8        6           0.000653957    0.000246987    0.000948890
      9        1           0.000115850    0.000079851   -0.000159514
     10        1           0.000088044   -0.000479693   -0.000109781
     11        1           0.000136589    0.000091311    0.000086228
     12        6          -0.000367265    0.001185540   -0.001128069
     13        1          -0.000001088   -0.000008243   -0.000074878
     14        6           0.000492320   -0.000756090    0.001061765
     15        1           0.000031211   -0.000017421   -0.000010838
     16        6          -0.001059056    0.001053326   -0.002074575
     17        8           0.000684692   -0.001305342    0.002054375
 -------------------------------------------------------------------
 Cartesian Forces:  Max     0.002074575 RMS     0.000729608
 -----------------------------------------------------------------------------------------------
                       Internal Coordinate Forces (Hartree/Bohr or radian)
  Cent   Atom   N1       Length/X         N2         Alpha/Y        N3         Beta/Z          J
 -----------------------------------------------------------------------------------------------
      1  H 
      2  N        1   0.000404(     1)
      3  C        2  -0.001887(     2)      1   0.002388(    17)
      4  C        2  -0.000462(     3)      1   0.001776(    18)      3  -0.000946(    32)     0
      5  H        3  -0.000041(     4)      2   0.000062(    19)      1  -0.000467(    33)     0
      6  C        3   0.000638(     5)      2  -0.000691(    20)      5  -0.000475(    34)     0
      7  C        4   0.000661(     6)      2  -0.001332(    21)      1  -0.001184(    35)     0
      8  C        4  -0.000765(     7)      2  -0.000648(    22)      7  -0.000534(    36)     0
      9  H        6  -0.000059(     8)      3  -0.000392(    23)      2   0.000113(    37)     0
     10  H        8  -0.000091(     9)      4  -0.000010(    24)      2   0.000321(    38)     0
     11  H        7  -0.000011(    10)      4   0.000323(    25)      2  -0.000156(    39)     0
     12  C        8   0.000093(    11)      4   0.001843(    26)     10  -0.000598(    40)     0
     13  H       12   0.000044(    12)      8  -0.000094(    27)      4  -0.000915(    41)     0
     14  C       12   0.001306(    13)      8   0.001002(    28)     13  -0.000988(    42)     0
     15  H       14  -0.000032(    14)     12   0.000013(    29)      8  -0.000404(    43)     0
     16  C       14  -0.000094(    15)     12   0.002281(    30)     15  -0.000438(    44)     0
     17  O       16   0.002441(    16)     14  -0.001440(    31)     12  -0.000004(    45)     0
 -----------------------------------------------------------------------------------------------
 Internal  Forces:  Max     0.002441280 RMS     0.000968761

 GradGradGradGradGradGradGradGradGradGradGradGradGradGradGradGradGradGrad
 Berny optimization.
 Search for a local minimum.
 Step number   4 out of a maximum of   55
 All quantities printed in internal units (Hartrees-Bohrs-Radians)
 Update second derivatives using D2CorN and points    3    1    4
 ITU=  0  0  0  0
     Eigenvalues ---   -0.01303   0.02437   0.03203   0.03649   0.04940
     Eigenvalues ---    0.05690   0.06368   0.07568   0.09238   0.11440
     Eigenvalues ---    0.13504   0.14621   0.18751   0.19252   0.19579
     Eigenvalues ---    0.22605   0.24071   0.24226   0.25970   0.30181
     Eigenvalues ---    0.31342   0.34764   0.35261   0.35394   0.35621
     Eigenvalues ---    0.36331   0.36419   0.36614   0.37815   0.38961
     Eigenvalues ---    0.46847   0.48582   0.49540   0.50500   0.51394
     Eigenvalues ---    0.51859   0.53374   0.54278   0.56192   0.61962
     Eigenvalues ---    0.67314   1.17413   1.28839   1.86387  20.89131
 RFO step:  Lambda=-1.30287277D-02 EMin=-1.30287069D-02
 I=     1 Eig=   -1.30D-02 Dot1= -3.91D-06
 I=     1 Stepn= -2.50D-01 RXN=   2.50D-01 EDone=F
 Mixed    1 eigenvectors in step.  Raw Step.Grad=  3.91D-06.
 RFO eigenvector is Hessian eigenvector with negative curvature.
 Taking step of  2.50D-01 in eigenvector direction(s).  Step.Grad=  2.99D-04.
 Quartic linear search produced a step of  0.02212.
 Maximum step size (   0.100) exceeded in Quadratic search.
    -- Step size scaled by   0.400
 Variable       Old X    -DE/DX   Delta X   Delta X   Delta X     New X
                                 (Linear)    (Quad)   (Total)
    R2        1.89887   0.00040   0.00000   0.00001   0.00001   1.89888
    R3        2.58123  -0.00189  -0.00000   0.00022   0.00022   2.58145
    R4        2.61058  -0.00046  -0.00001   0.00117   0.00116   2.61174
    R5        2.03432  -0.00004  -0.00000  -0.00005  -0.00005   2.03427
    R6        2.59905   0.00064   0.00000  -0.00037  -0.00037   2.59869
    R7        2.62409   0.00066  -0.00000   0.00001   0.00001   2.62410
    R8        2.73029  -0.00077  -0.00000  -0.00061  -0.00061   2.72968
    R9        2.03568  -0.00006  -0.00000   0.00005   0.00005   2.03573
   R10        2.05268  -0.00009   0.00000   0.00018   0.00018   2.05287
   R11        2.03290  -0.00001   0.00000   0.00075   0.00075   2.03365
   R12        2.54596   0.00009  -0.00000  -0.00129  -0.00129   2.54467
   R13        2.04695   0.00004   0.00000   0.00019   0.00019   2.04714
   R14        2.74767   0.00131  -0.00000  -0.00107  -0.00107   2.74660
   R15        2.05062  -0.00003  -0.00000   0.00044   0.00044   2.05106
   R16        2.49436  -0.00009  -0.00000  -0.00036  -0.00036   2.49400
   R17        2.18915   0.00244   0.00000   0.00020   0.00020   2.18936
    A3        2.18546   0.00239   0.00006  -0.00605  -0.00600   2.17946
    A4        2.16409   0.00178  -0.00006   0.00975   0.00969   2.17377
    A5        2.11892   0.00006   0.00000  -0.00027  -0.00027   2.11865
    A6        1.87804  -0.00069  -0.00001   0.00149   0.00148   1.87952
    A7        1.85207  -0.00133   0.00000   0.00004   0.00005   1.85211
    A8        2.08675  -0.00065  -0.00006   0.00888   0.00882   2.09557
    A9        2.19656  -0.00039  -0.00000   0.00012   0.00011   2.19668
   A10        1.99732  -0.00001  -0.00002   0.00338   0.00336   2.00067
   A11        2.19885   0.00032   0.00000  -0.00108  -0.00107   2.19778
   A12        2.27539   0.00184   0.00005  -0.01165  -0.01160   2.26379
   A13        2.02731  -0.00009  -0.00002   0.00421   0.00419   2.03150
   A14        2.29378   0.00100   0.00004  -0.01159  -0.01155   2.28224
   A15        2.05906   0.00001  -0.00003   0.00261   0.00258   2.06164
   A16        2.26347   0.00228   0.00005  -0.00682  -0.00677   2.25670
   A17        3.07613  -0.00144  -0.00003   0.00381   0.00378   3.07990
    D4       -3.06604  -0.00095  -0.00004  -0.03977  -0.03981  -3.10585
    D5        0.04953  -0.00047  -0.00004  -0.02813  -0.02816   0.02137
    D6       -3.14049  -0.00047  -0.00002   0.00258   0.00255  -3.13793
    D7        3.09270  -0.00118   0.00009   0.02794   0.02803   3.12073
    D8        3.08462  -0.00053   0.00006  -0.02121  -0.02115   3.06346
    D9       -3.12439   0.00011   0.00000  -0.00512  -0.00512  -3.12951
   D10       -0.35626   0.00032   0.00013   0.04415   0.04427  -0.31199
   D11        3.07778  -0.00016  -0.00001  -0.00308  -0.00308   3.07470
   D12       -3.12505  -0.00060   0.00006   0.03069   0.03076  -3.09429
   D13        3.07233  -0.00091   0.00012  -0.02781  -0.02769   3.04464
   D14        3.13208  -0.00099   0.00011   0.00781   0.00792   3.14000
   D15        2.94964  -0.00040   0.00009  -0.04422  -0.04412   2.90552
   D16        3.02996  -0.00044   0.00008  -0.00747  -0.00738   3.02258
   D17        3.08701  -0.00000  -0.00001   0.00559   0.00557   3.09259
         Item               Value     Threshold  Converged?
 Maximum Force            0.002441     0.000450     NO 
 RMS     Force            0.000969     0.000300     NO 
 Maximum Displacement     0.044273     0.001800     NO 
[...]
   zy        -0.533368D+01     -0.790370D+00     -0.879405D+00
   zz         0.116214D+03      0.172211D+02      0.191610D+02

 ----------------------------------------------------------------------
 1\1\GINC-BHC0108\Freq\RB3LYP\def2TZVP\C8H7N1O1\DHANAWAY\10-Jun-2022\1\
 \#N Geom=AllCheck Guess=TCheck SCRF=Check GenChk RB3LYP/def2TZVP Freq\
 \int_zmat_initalOpt\\0,1\H\N,1,R2\C,2,R3,1,A3\C,2,R4,1,A4,3,D4,0\H,3,R
 5,2,A5,1,D5,0\C,3,R6,2,A6,5,D6,0\C,4,R7,2,A7,1,D7,0\C,4,R8,2,A8,7,D8,0
 \H,6,R9,3,A9,2,D9,0\H,8,R10,4,A10,2,D10,0\H,7,R11,4,A11,2,D11,0\C,8,R1
 2,4,A12,10,D12,0\H,12,R13,8,A13,4,D13,0\C,12,R14,8,A14,13,D14,0\H,14,R
 15,12,A15,8,D15,0\C,14,R16,12,A16,15,D16,0\O,16,R17,14,A17,12,D17,0\\R
 2=1.00527453\R3=1.3630425\R4=1.38203289\R5=1.07648965\R6=1.37657668\R7
 =1.3902182\R8=1.44199734\R9=1.0771461\R10=1.08628428\R11=1.07549111\R1
 2=1.34758623\R13=1.08309654\R14=1.45565511\R15=1.08568321\R16=1.318893
 89\R17=1.16039212\A3=125.41816231\A4=123.84040151\A5=121.46394448\A6=1
 07.63664128\A7=106.04560488\A8=119.26704429\A9=125.72148118\A10=114.08
 743547\A11=126.18798687\A12=131.07873892\A13=116.12978495\A14=131.4389
 0614\A15=117.73185782\A16=130.32984559\A17=175.85538593\D4=-179.048646
 11\D5=0.20518318\D6=-179.68971051\D7=179.48713407\D8=176.67404695\D9=-
 179.40472373\D10=-15.49372105\D11=176.86427985\D12=-179.23003772\D13=1
 75.93428235\D14=179.39634332\D15=166.93080264\D16=173.49211237\D17=176
 .94724251\\Version=ES64L-G16RevA.03\HF=-439.155375\RMSD=5.942e-09\RMSF
 =2.369e-04\ZeroPoint=0.1300702\Thermal=0.1390499\Dipole=0.208581,0.306
 1956,-1.1127622\DipoleDeriv=0.1890388,0.0098621,-0.052974,-0.0030315,0
 .2866313,-0.006228,-0.0461702,-0.0062475,0.2256493,0.299553,0.0755846,
 -0.1015407,0.075709,-0.190334,0.0098773,0.0819765,-0.0094304,-0.598688
 4,-0.4230835,-0.0804361,0.2036692,-0.0271489,-0.1370265,0.0046802,-0.3
 450211,-0.0714952,0.3494567,-0.3371758,-0.061327,-0.1676059,-0.0058648
 ,-0.0114011,0.0028986,-0.3929471,-0.0194915,0.200333,0.0223784,-0.0007
 13,0.0306627,-0.0076532,0.1800073,0.0038193,0.0386063,-0.0014137,0.060
 4245,-0.3202708,-0.0625408,0.0725582,0.006886,-0.2246428,-0.021264,0.2
 763899,0.0407355,-0.0741931,0.2677402,0.0348725,0.0107725,-0.0426977,-
 0.1827201,0.0258561,0.1328916,0.0402461,-0.1395794,0.5490617,0.0639763
 ,0.1608771,0.0094212,-0.1303104,-0.0243899,0.3464683,0.0479662,-0.0533
 658,0.0113085,-0.0075822,-0.0639117,0.009132,0.1668692,0.0038482,-0.07
 17902,-0.0017201,0.0093705,0.0154164,-0.0225805,0.03747,-0.0406341,0.1
 024877,0.0692234,-0.0306072,0.0593898,-0.0843481,0.0224323,0.0085753,0
 .0771358,0.016822,0.149116,0.0032841,0.0622333,0.0009053,0.0158469,-0.
 2242715,0.027638,-0.114198,0.2167174,-0.0132794,-0.2817128,-0.3477643,
 -0.3162735,0.4522071,-0.0521505,0.0100768,-0.0598128,-0.0084142,0.1074
 459,0.0707943,-0.0600818,0.0546701,-0.0102804,-0.1185831,0.1996913,-0.
 3750103,-0.0989378,-0.4498811,0.2559373,0.170942,0.2734241,-0.6600524,
 0.0397748,0.0002994,0.0484158,0.0269426,0.165854,0.0402537,0.0280417,0
 .0700345,0.058879,0.1587999,-0.5951718,0.8162061,-0.0460374,0.8243663,
 -0.8332629,-0.0816029,-0.9414973,1.4486783,-0.0999692,0.399775,-0.5227
 14,-0.0812107,-0.6431822,0.6763851,0.2384351,0.7801977,-1.2003377\Pola
 r=152.5040791,10.6372045,68.2023869,-3.9112122,-16.3085256,107.0350105
 \PG=C01 [X(C8H7N1O1)]\NImag=0\\0.06141884,0.00040348,0.01016098,-0.000
 61286,-0.00015609,0.47337280,-0.07391634,-0.00057505,0.00138292,0.6263
 7530,-0.00070344,-0.00196945,0.00048862,0.00144148,0.07917901,0.000887
 93,-0.00047740,-0.45569645,0.02483671,-0.00384538,0.94867977,0.0114200
 4,0.00012457,0.00453574,-0.25601828,0.00049149,-0.09552993,0.79974511,
 -0.00006657,-0.00666157,-0.00025264,0.00111849,-0.05223464,0.00057793,
 0.00272341,0.11398326,-0.02639681,0.00041173,-0.00984073,-0.09319471,0
 .00094478,-0.17818419,-0.12270261,-0.00396341,0.66506104,0.00984032,0.
 00006990,-0.00472246,-0.21452315,0.00104503,0.07566119,-0.08812478,-0.
 00138517,-0.02040600,0.69839631,0.00031990,-0.00644353,0.00009942,-0.0
 0076580,-0.05860559,0.00353511,-0.00100556,0.01440052,-0.00022203,-0.0
 0411197,0.14330086,0.02550837,0.00063427,-0.01067110,0.07972091,0.0049
 2658,-0.16463581,0.01101698,0.00066848,-0.01013286,0.09322462,-0.01739
 736,0.64954608,0.00016607,0.00001414,-0.00010412,-0.01898603,-0.000059
 12,0.01205407,-0.30744706,-0.00105078,0.10626898,-0.00015534,0.0001300
 7,-0.00427528,0.32553208,0.00006345,-0.00190414,0.00006164,-0.00011874
 ,-0.00265328,-0.00041149,-0.00079197,-0.02276126,0.00049796,-0.0001264
 6,0.00233942,-0.00045264,0.00100401,0.01906794,0.00086493,-0.00001888,
 0.00065365,-0.02386248,-0.00012194,0.01322821,0.11571940,0.00067952,-0
 .11045974,-0.00234553,0.00009019,-0.00420816,-0.11486635,-0.00062609,0
 .10199635,-0.00588876,0.00048156,-0.00337948,-0.00180218,0.00035219,-0
 .00286216,-0.12730277,-0.00115675,0.06205972,-0.04027679,0.00024649,-0
 .07288612,0.00087730,-0.00044620,0.02336517,0.62703729,0.00000087,0.00
 217950,-0.00015979,-0.00001305,0.01422520,0.00096047,-0.00078629,-0.06
 259262,0.00159870,-0.00038334,0.01055804,0.00066604,0.00004440,0.00121
 762,0.00000205,0.00418813,0.11537661,-0.00408456,-0.00018076,0.0007695
 7,-0.04717093,0.00016869,-0.08687607,0.08518518,0.00193914,-0.34238963
 ,-0.01399332,-0.00030411,0.00051213,-0.00070453,0.00027395,0.00275974,
 0.12054399,-0.00030568,0.78754594,-0.00596153,-0.00050140,0.00333082,-
 0.01405845,-0.00128034,0.00281103,-0.03601447,-0.00083528,0.07718373,-
 0.11241626,0.00086076,-0.05054347,0.00087549,0.00032096,0.00166721,-0.
 28770044,-0.00262921,-0.01934614,0.63239925,-0.00001627,0.00134279,-0.
 00003028,-0.00150981,0.01336747,0.00049465,0.00015113,0.01192276,0.001
 66895,-0.00161048,-0.06724309,-0.00441710,0.00002806,0.00452166,-0.000
 02171,-0.00105320,-0.05812882,-0.00173035,-0.00348365,0.11793890,0.004
 23397,-0.00019348,0.00012665,0.03967615,0.00031443,-0.08158552,0.02050
 976,0.00044845,-0.00110881,-0.05665376,0.00165504,-0.30840496,0.000573
 24,0.00036824,-0.00556743,0.01368350,-0.00106377,-0.11105138,-0.126205
 23,0.00739131,0.75967711,0.00230177,-0.00020441,-0.00072972,-0.0517930
 0,-0.00189858,-0.01224593,0.00239176,0.00009798,0.01249443,-0.21486569
 ,0.00126916,-0.04572401,-0.00080773,0.00021590,-0.00094905,0.00950962,
 0.00004154,-0.00543563,-0.01244187,0.00482209,-0.02208078,0.75777807,-
 0.00071951,-0.00185813,-0.00034352,-0.00041165,-0.00214267,-0.00056544
 ,-0.00146720,0.00164929,-0.00046498,0.00941163,-0.05263285,0.01420248,
 -0.00013560,0.00238947,-0.00008680,-0.00011779,0.00358790,0.00043393,0
 .00078634,0.00236893,-0.00018616,0.07301589,0.16929296,0.00161019,-0.0
 0080698,0.00159615,0.01857798,-0.00204918,0.01453485,0.00639781,0.0008
 3634,-0.00180095,-0.08368798,0.01096254,-0.14346034,0.00081483,0.00034
 570,0.00102415,0.00205532,-0.00059265,-0.00794192,-0.03082277,0.001909
 71,-0.00629921,-0.05717073,-0.14390282,0.59314689,0.00084805,-0.000033
 14,0.00036471,-0.00028245,-0.00011773,0.00389864,0.01105930,0.00014169
 ,0.00893115,-0.00608460,-0.00010211,0.00079473,-0.00007687,0.00003860,
 -0.00082853,-0.16219862,-0.00134614,-0.14215209,-0.00659777,-0.0001703
 4,-0.02367748,0.00065973,0.00001762,-0.00116739,0.16217856,0.00004438,
 0.00230745,0.00009050,-0.00006651,0.00460002,-0.00000799,0.00003430,-0
 .00134847,0.00048820,0.00002275,0.00403266,0.00038983,0.00000726,-0.00
 290701,-0.00000127,-0.00091395,-0.02631527,-0.00156222,-0.00033023,-0.
 00073912,-0.00054503,-0.00016336,0.00125456,-0.00030729,0.00144281,0.0
 2175847,-0.00112206,0.00001861,-0.00013581,0.00205489,0.00002290,-0.00
 501588,-0.01953114,-0.00021900,-0.01145013,0.00193454,0.00008562,0.000
 11583,0.00046541,0.00000649,0.00040418,-0.13977331,-0.00130252,-0.2497
 5631,0.00342766,0.00007843,0.00680757,-0.00012768,0.00001611,0.0003661
 2,0.15341443,0.00136716,0.25856075,-0.00082106,0.00035766,0.00041253,0
 .00187320,-0.00052336,-0.00047482,-0.00042556,0.00020821,-0.00022911,0
 .00153058,0.00727556,-0.02873684,0.00002018,-0.00001941,0.00004212,-0.
 00021424,-0.00024952,-0.00141803,-0.00422240,0.00062787,0.00062668,-0.
 05586354,-0.00253473,0.00550381,-0.00042811,-0.00020473,0.00007103,0.0
 6497969,0.00060230,0.00048650,0.00009444,-0.00006493,-0.00109317,-0.00
 070663,0.00018565,-0.00004111,-0.00051909,-0.00355767,0.00231671,0.000
 58239,-0.00000742,0.00001327,-0.00000620,-0.00076060,0.00016353,0.0004
 1321,0.00103152,0.00186560,0.00049152,0.00040385,-0.05727501,0.0837576
 1,0.00004304,-0.00020442,-0.00005405,0.00695990,0.05123795,-0.00124659
 ,0.00047030,0.00019090,0.00233087,-0.00119139,0.00218114,-0.00127407,-
 0.00020347,-0.00075507,-0.00006651,0.00466939,-0.01641429,0.00001378,0
 .00009081,0.00002488,-0.00030365,-0.00033625,-0.00009067,-0.00137054,0
 .00127076,0.00193669,0.00926546,0.08265929,-0.29733010,-0.00023227,-0.
 00008696,0.00011952,-0.00873850,-0.09144634,0.31823731,0.00080146,0.00
 011822,-0.00038986,-0.00056916,0.00006781,-0.00403813,-0.00628302,0.00
 007740,-0.00038134,0.01112539,-0.00017676,-0.00871726,0.00011565,-0.00
 015271,0.00140219,-0.00687480,0.00096004,0.02451668,-0.16013620,0.0050
 4944,0.14204851,-0.00025960,-0.00006715,0.00087989,0.00090012,-0.00008
 920,-0.00075510,0.00008624,0.00002771,0.00008361,0.16419772,-0.0000971
 7,0.00246009,0.00010669,0.00079595,0.00395879,0.00017322,-0.00050772,0
 .00369341,-0.00070090,-0.00013430,-0.00109217,0.00050826,-0.00002029,0
 .00107770,0.00006813,-0.00087848,0.00014276,0.00073066,0.00616338,-0.0
 2566017,-0.00850000,-0.00010227,-0.00306531,0.00031467,0.00000592,-0.0
 0238018,-0.00000301,0.00005530,-0.00010968,0.00000051,-0.00308027,0.02
 151371,0.00111059,0.00007268,-0.00023132,-0.00166064,0.00002420,-0.004
 92078,-0.00195970,-0.00017499,0.00002277,0.01876790,-0.00064453,-0.010
 81421,-0.00003222,-0.00003140,0.00044038,-0.00327472,-0.00001097,0.006
 88344,0.14028229,-0.00822892,-0.25384220,0.00032151,0.00003434,0.00074
 893,0.00072339,0.00009962,-0.00002464,-0.00004209,0.00002427,-0.000005
 64,-0.15474932,0.00816854,0.26198155,-0.00050518,-0.00021451,0.0000420
 2,0.00546644,0.00110145,-0.00425740,-0.00318825,0.00029207,-0.00377397
 ,-0.04854392,-0.00325409,-0.00563755,-0.00001523,-0.00017785,-0.000123
 92,-0.00464469,0.00091355,0.00420602,0.00804319,-0.00253623,0.00927882
 ,-0.40670659,-0.06924594,0.12276623,0.00000848,0.00016685,-0.00003288,
 -0.00246227,-0.00383243,0.00002630,0.00010500,-0.00053159,-0.00039994,
 0.76401910,-0.00015875,-0.00035969,0.00014014,0.00063408,0.00238725,0.
 00055653,0.00128960,0.00042539,0.00091465,-0.00089398,0.00564070,-0.00
 356941,0.00010777,-0.00018388,0.00012126,0.00104130,0.00000299,-0.0000
 9134,0.00009195,-0.00043415,0.00088496,-0.06315877,-0.06948456,0.03972
 879,0.00011569,-0.00005568,0.00000606,-0.01039377,0.00016051,0.0045519
 2,0.00000442,-0.00005970,0.00010945,0.05416328,0.17295350,-0.00023678,
 0.00021701,-0.00036604,-0.00164685,0.00044449,-0.00182617,-0.00396479,
 -0.00051965,-0.00092258,-0.00494469,-0.00383453,0.01958964,-0.00025237
 ,-0.00003373,-0.00041279,-0.00115581,0.00007688,-0.00002964,-0.0011062
 8,0.00163870,-0.00175656,0.09636868,0.03877126,-0.14239291,-0.00023988
 ,0.00009823,-0.00000021,0.02933073,0.00840150,-0.01088082,-0.00025490,
 -0.00066021,-0.00074536,-0.03235479,-0.16277020,0.53343601,-0.00003258
 ,-0.00000692,-0.00005637,-0.00106361,-0.00026148,-0.00096904,-0.000244
 54,0.00002660,0.00046197,-0.00147374,-0.00097961,0.00357375,-0.0000833
 5,0.00006943,-0.00008183,-0.00001348,-0.00001601,-0.00018807,-0.000051
 47,0.00006848,0.00010453,-0.02403922,0.00436647,-0.01943579,-0.0000438
 2,0.00000309,-0.00001246,0.00039782,0.00019963,0.00008852,-0.00000712,
 -0.00004320,-0.00004718,-0.21038096,0.03629270,-0.13306835,0.22865392,
 -0.00000223,0.00009323,-0.00004996,-0.00088743,0.00103194,-0.00044480,
 -0.00004842,-0.00012699,0.00019578,-0.00066669,0.00812201,0.00383702,-
 0.00005530,-0.00043240,-0.00005955,-0.00003816,0.00006145,-0.00006542,
 0.00032701,-0.00028837,-0.00014386,-0.00806432,0.00288767,-0.00231050,
 0.00001147,-0.00012162,-0.00000437,0.00023688,-0.00616513,-0.00223921,
 -0.00000110,0.00009447,-0.00002753,0.03910879,-0.04080219,0.03615563,-
 0.03562122,0.03701820,0.00000071,0.00003033,-0.00002886,-0.00026430,0.
 00032229,0.00016269,0.00012520,-0.00005918,0.00013776,0.00229118,0.003
 25486,0.00170821,0.00000943,-0.00014820,0.00000476,0.00017888,-0.00002
 329,0.00000552,0.00017875,-0.00010507,-0.00037050,0.00878229,-0.000953
 24,0.00843088,0.00003403,-0.00003800,-0.00000211,0.00132325,-0.0027869
 6,0.00076526,0.00003714,0.00012242,0.00007552,-0.13456761,0.03845667,-
 0.16480622,0.13863476,-0.04726076,0.17629380,-0.00004789,-0.00003875,-
 0.00000862,-0.00200469,-0.00044662,0.00082775,0.00121866,0.00015876,0.
 00146233,0.00402170,0.00019484,0.00081210,0.00000097,0.00015485,0.0001
 0735,0.00156465,-0.00053951,-0.00043060,-0.00133421,-0.00017130,-0.001
 87593,-0.00624005,-0.01003031,0.02555650,0.00010945,-0.00001760,-0.000
 02025,-0.00320413,-0.00123173,0.00141437,-0.00034643,0.00099528,0.0002
 6161,-0.09938941,-0.02156801,0.06186203,0.00606496,0.00652120,-0.01719
 892,0.58250546,0.00040865,0.00007644,-0.00010950,0.00049274,0.00007397
 ,0.00009385,-0.00066352,-0.00046276,-0.00111022,0.00475591,-0.00389483
 ,0.00070323,-0.00002573,0.00009664,-0.00004739,-0.00119407,-0.00014480
 ,0.00017496,-0.00030989,0.00134057,-0.00170156,-0.01057408,0.00053017,
 0.01284306,-0.00014018,0.00008535,-0.00000166,-0.00185937,0.00842102,0
 .00153484,-0.00001086,-0.00056420,0.00018929,-0.00910446,-0.06408200,0
 .05978923,-0.00265601,-0.00231063,0.00790317,-0.12027821,0.23901897,-0
 .00058214,0.00001448,0.00025149,-0.00113290,-0.00032681,0.00021622,0.0
 0182048,0.00049198,0.00193571,-0.00756171,-0.00221503,-0.00394184,0.00
 003039,-0.00004662,0.00014776,0.00191739,0.00092995,-0.00009439,0.0007
 5785,-0.00190943,0.00171539,0.02419491,0.01009273,-0.02134417,0.000236
 44,-0.00000050,-0.00000107,0.00206768,0.00130755,0.00223543,0.00006568
 ,-0.00006206,0.00008607,0.02997237,0.06193792,-0.19092746,0.00818791,0
 .01154577,-0.01920593,0.03481444,-0.27269097,0.57241333,0.00001704,-0.
 00001123,0.00000154,-0.00004907,-0.00000207,-0.00005697,-0.00000582,0.
 00002647,0.00004762,0.00001401,0.00015183,-0.00004457,-0.00000072,-0.0
 0000067,0.00000284,0.00003604,-0.00002898,0.00000754,-0.00007296,-0.00
 003402,-0.00010404,0.00163569,0.00040019,0.00104588,-0.00000712,-0.000
 00487,-0.00000266,-0.00036201,-0.00024794,0.00010230,-0.00003583,0.000
 04514,0.00005579,-0.00727953,0.00040651,0.00219191,0.00128179,-0.00030
 166,-0.00043313,-0.31346610,0.02569680,0.05447872,0.33798149,-0.000006
 36,0.00002180,0.00001235,0.00004564,-0.00010969,-0.00004114,-0.0001185
 0,0.00000863,0.00009145,-0.00061113,0.00036592,-0.00031503,0.00000842,
 0.00004600,0.00002185,0.00013367,-0.00027263,0.00015344,-0.00030074,0.
 00001653,-0.00031858,0.00102172,0.00111920,0.00133201,0.00000419,-0.00
 001739,-0.00000954,-0.00036162,-0.00022565,0.00031905,0.00000957,0.000
 34489,0.00012733,-0.01189526,0.00379455,0.00533800,0.00014135,-0.00043
 359,0.00003570,0.02493291,-0.02365494,0.00390286,-0.03043459,0.0210656
 3,-0.00009319,0.00004402,0.00003178,-0.00003107,-0.00010532,0.00016473
 ,0.00004843,-0.00001616,0.00023311,-0.00073056,0.00009806,-0.00062084,
 0.00001444,0.00003850,0.00003401,0.00031919,-0.00020514,0.00007591,-0.
 00035251,-0.00013460,-0.00018656,-0.00028471,0.00165240,-0.00385031,0.
 00001384,-0.00000320,-0.00000206,0.00070228,0.00072321,-0.00029550,0.0
 0003376,0.00037173,0.00014971,0.02826447,-0.00008289,-0.00332287,0.000
 02343,-0.00054261,0.00138465,0.04931786,0.00710342,-0.04995442,-0.0569
 5748,-0.01334115,0.05417513,0.00085571,-0.00013078,-0.00015915,0.00489
 624,0.00171183,-0.00235641,-0.00314086,-0.00078195,-0.00502059,-0.0000
 2168,0.00006910,0.00152703,-0.00001002,-0.00021756,-0.00031602,-0.0055
 9165,0.00036444,0.00139429,0.00185446,0.00266493,0.00209419,0.00350663
 ,-0.00482259,0.01230052,-0.00031334,0.00008439,0.00003005,-0.00142318,
 0.00028290,-0.00020913,-0.00158374,-0.00390510,-0.00050904,0.00601366,
 0.00284574,-0.01701498,0.00052766,-0.00121074,0.00188006,-0.18003471,0
 .09576310,-0.11353723,-0.02269859,0.02047735,-0.02316502,0.42194170,-0
 .00042701,0.00007395,0.00022091,-0.00202677,-0.00050088,0.00091535,0.0
 0249466,0.00014861,0.00242061,-0.00150661,-0.00222944,-0.00121864,0.00
 003233,0.00034675,0.00009160,0.00253249,-0.00063902,-0.00128928,-0.001
 36798,-0.00214942,0.00100657,0.00153793,0.00307210,-0.00552299,0.00032
 863,0.00017783,0.00001387,0.00077469,0.00125538,0.00015104,-0.00186210
 ,0.00136667,-0.00047307,0.00419258,-0.01724473,0.02051100,-0.00101737,
 0.00147881,0.00004732,0.10106314,-0.14717270,0.16405867,0.00568757,-0.
 00469786,0.00202542,-0.31162915,0.44965226,0.00074290,-0.00016798,-0.0
 0033725,0.00435289,0.00075364,-0.00223166,-0.00421121,-0.00054669,-0.0
 0416360,0.00063051,-0.00019982,-0.00000070,0.00000443,-0.00001898,-0.0
 0025550,-0.00447144,-0.00038659,0.00155975,0.00207554,0.00303571,0.002
 48916,-0.00141945,-0.00223730,0.01123448,-0.00054891,0.00000375,-0.000
 00049,-0.00089863,-0.00036789,0.00006442,-0.00006963,-0.00210368,0.000
 37012,-0.02098226,0.02195368,-0.04355958,0.00307101,0.00157655,-0.0047
 0795,-0.11780102,0.16275702,-0.28042374,-0.00281341,0.00037920,0.00382
 748,0.43308917,-0.53589338,0.88690194,-0.00049595,0.00014665,0.0000923
 7,-0.00354477,-0.00091852,0.00181348,0.00236053,0.00040543,0.00319520,
 0.00155761,-0.00012179,0.00038663,-0.00000539,0.00018439,0.00020250,0.
 00348352,-0.00052091,-0.00092982,-0.00216436,-0.00282669,-0.00223213,-
 0.00476598,0.00155434,-0.00522430,0.00026900,-0.00001537,-0.00002046,0
 .00053877,-0.00003377,0.00011604,-0.00123569,0.00123942,0.00115176,-0.
 00053985,-0.00081976,0.00648712,0.00050772,0.00069190,-0.00101174,0.01
 058176,0.01969915,-0.03573027,0.00301169,-0.00304664,0.00287683,-0.224
 77830,0.20119299,-0.29075049,0.21521970,0.00035431,-0.00000622,-0.0002
 1295,0.00191137,0.00048573,-0.00080686,-0.00210564,-0.00000245,-0.0022
 5217,-0.00031742,0.00106468,0.00025159,-0.00002220,-0.00027451,-0.0000
 8478,-0.00241663,0.00057755,0.00124114,0.00145679,-0.00004206,0.000091
 92,0.00173972,-0.00169371,0.00346196,-0.00024003,-0.00012716,-0.000021
 10,-0.00034954,-0.00080629,-0.00021427,-0.00087446,-0.00172109,0.00074
 170,0.00085378,0.00734168,-0.00362360,-0.00056592,-0.00010686,0.001201
 94,0.02030107,-0.00735626,0.02296953,-0.00134847,0.00262859,0.00237430
 ,0.19843411,-0.28293830,0.35146275,-0.21681081,0.28297667,-0.00058459,
 0.00008813,0.00031456,-0.00396944,-0.00077060,0.00180492,0.00381447,0.
 00031336,0.00381789,0.00260258,0.00036717,0.00183323,-0.00001414,0.000
 08585,0.00018556,0.00398354,0.00015257,-0.00188200,-0.00196793,-0.0009
 1077,-0.00257945,-0.00525957,0.00087772,-0.00666254,0.00043518,0.00001
 516,0.00001474,0.00045790,0.00009146,0.00001655,0.00028807,0.00146503,
 -0.00017434,0.00757409,-0.00284820,0.00892356,-0.00028681,-0.00016217,
 0.00015253,-0.03910101,0.02256921,-0.01310840,0.00247810,0.00231221,-0
 .00184397,-0.29002775,0.35293498,-0.57076688,0.31957729,-0.37658109,0.
 57995403\\-0.00104962,0.00029676,-0.00000084,0.00103710,-0.00063902,0.
 00002388,0.00000467,0.00038744,-0.00000283,0.00000689,-0.00005167,-0.0
 0004038,-0.00000065,-0.00003276,0.00000099,0.00004388,-0.00002442,0.00
 001166,-0.00004122,0.00007286,0.00001361,0.00000910,0.00003099,-0.0000
 0627,0.00000485,-0.00002062,-0.00000251,-0.00000298,0.00001105,0.00000
 606,-0.00000264,-0.00000176,-0.00000517,-0.00004449,-0.00005888,0.0000
 0495,-0.00000057,0.00002650,0.00001418,0.00006512,0.00002603,-0.000045
 22,-0.00000732,0.00000277,0.00002008,-0.00001165,-0.00005258,-0.000032
 76,-0.00001047,0.00002733,0.00004057\\\@


 SACRED COWS MAKE GREAT HAMBURGERS -- ROBERT REISNER
 Job cpu time:       0 days  2 hours  0 minutes  1.1 seconds.
 Elapsed time:       0 days  0 hours 10 minutes  0.8 seconds.
 File lengths (MBytes):  RWF=    182 Int=      0 D2E=      0 Chk=     32 Scr=      1
 Normal termination of Gaussian 16 at Fri Jun 10 23:02:38 2022.
