 Entering Gaussian System, Link 0=g16
 Input=int_zmat_field_N100.gjf
 Output=int_zmat_field_N100.out
 Initial command:
 /software/gaussian/g16-a03/l1.exe "/local_scratch/11174864/Gau-9029.inp" -scrdir="/local_scratch/11174864/"
 Entering Link 1 = /software/gaussian/g16-a03/l1.exe PID=      9030.
  
 Copyright (c) 1988,1990,1992,1993,1995,1998,2003,2009,2016,
            Gaussian, Inc.  All Rights Reserved.
  
 This is part of the Gaussian(R) 16 program.  It is based on
 the Gaussian(R) 09 system (copyright 2009, Gaussian, Inc.),
 the Gaussian(R) 03 system (copyright 2003, Gaussian, Inc.),
 the Gaussian(R) 98 system (copyright 1998, Gaussian, Inc.),
 the Gaussian(R) 94 system (copyright 1995, Gaussian, Inc.),
 the Gaussian 92(TM) system (copyright 1992, Gaussian, Inc.),
 the Gaussian 90(TM) system (copyright 1990, Gaussian, Inc.),
 the Gaussian 88(TM) system (copyright 1988, Gaussian, Inc.),
 the Gaussian 86(TM) system (copyright 1986, Carnegie Mellon
 University), and the Gaussian 82(TM) system (copyright 1983,
 Carnegie Mellon University). Gaussian is a federally registered
 trademark of Gaussian, Inc.
  
 This software contains proprietary and confidential information,
 including trade secrets, belonging to Gaussian, Inc.
  
 This software is provided under written license and may be
 used, copied, transmitted, or stored only in accord with that
 written license.
  
 The following legend is applicable only to US Government
 contracts under FAR:
  
                    RESTRICTED RIGHTS LEGEND
  
 Use, reproduction and disclosure by the US Government is
 subject to restrictions as set forth in subparagraphs (a)
 and (c) of the Commercial Computer Software - Restricted
 Rights clause in FAR 52.227-19.
  
 Gaussian, Inc.
 340 Quinnipiac St., Bldg. 40, Wallingford CT 06492
  
  
 ---------------------------------------------------------------
 Warning -- This program may not be used in any manner that
 competes with the business of Gaussian, Inc. or will provide
 assistance to any competitor of Gaussian, Inc.  The licensee
 of this program is prohibited from giving any competitor of
 Gaussian, Inc. access to this program.  By using this program,
 the user acknowledges that Gaussian, Inc. is engaged in the
 business of creating and licensing software in the field of
 computational chemistry and represents and warrants to the
 licensee that it is not a competitor of Gaussian, Inc. and that
 it will not use this program in any manner prohibited above.
 ---------------------------------------------------------------
  

 Cite this work as:
 Gaussian 16, Revision A.03,
 M. J. Frisch, G. W. Trucks, H. B. Schlegel, G. E. Scuseria, 
 M. A. Robb, J. R. Cheeseman, G. Scalmani, V. Barone, 
 G. A. Petersson, H. Nakatsuji, X. Li, M. Caricato, A. V. Marenich, 
 J. Bloino, B. G. Janesko, R. Gomperts, B. Mennucci, H. P. Hratchian, 
 J. V. Ortiz, A. F. Izmaylov, J. L. Sonnenberg, D. Williams-Young, 
 F. Ding, F. Lipparini, F. Egidi, J. Goings, B. Peng, A. Petrone, 
 T. Henderson, D. Ranasinghe, V. G. Zakrzewski, J. Gao, N. Rega, 
 G. Zheng, W. Liang, M. Hada, M. Ehara, K. Toyota, R. Fukuda, 
 J. Hasegawa, M. Ishida, T. Nakajima, Y. Honda, O. Kitao, H. Nakai, 
 T. Vreven, K. Throssell, J. A. Montgomery, Jr., J. E. Peralta, 
 F. Ogliaro, M. J. Bearpark, J. J. Heyd, E. N. Brothers, K. N. Kudin, 
 V. N. Staroverov, T. A. Keith, R. Kobayashi, J. Normand, 
 K. Raghavachari, A. P. Rendell, J. C. Burant, S. S. Iyengar, 
 J. Tomasi, M. Cossi, J. M. Millam, M. Klene, C. Adamo, R. Cammi, 
 J. W. Ochterski, R. L. Martin, K. Morokuma, O. Farkas, 
 J. B. Foresman, and D. J. Fox, Gaussian, Inc., Wallingford CT, 2016.
 
 ******************************************
 Gaussian 16:  ES64L-G16RevA.03 25-Dec-2016
                11-Jun-2022 
 ******************************************
 %nprocshared=12
 Will use up to   12 processors via shared memory.
 %chk=checkpoint.chk
 %mem=12GB
 ----------------------------------------------------------------------
 # Opt=(Z-matrix, MaxStep=10) B3LYP/Def2TZVP geom=allcheckpoint guess=r
 ead Field=read NoSymm freq=noraman pop=none
 ----------------------------------------------------------------------
 1/8=10,10=7,18=40,26=3,29=7,38=1/1,3;
 2/12=2,15=1,29=3,40=1/2;
 3/5=44,7=101,11=2,14=-6,25=1,30=1,71=1,74=-5,116=-2/1,2,3;
 4/5=1/1;
 5/5=2,38=6/2;
 7/29=1,30=1/1,2,3,16;
 1/8=10,10=7,18=40,26=3/3(2);
 2/15=1,29=3/2;
 99//99;
 2/15=1,29=3/2;
 3/5=44,7=101,11=2,14=-2,25=1,30=1,71=1,74=-5/1,2,3;
 4/5=5,16=3,69=1/1;
 5/5=2,38=5/2;
 7/30=1/1,2,3,16;
 1/8=10,18=40,26=3/3(-5);
 2/15=1,29=3/2;
 99/9=1/99;
 Structure from the checkpoint file:  "checkpoint.chk"
 ------------------
 int_zmat_initalOpt
 ------------------
 Charge =  0 Multiplicity = 1
 Z-Matrix found in chk file.
 H
 N,1,R2
 C,2,R3,1,A3
 C,2,R4,1,A4,3,D4,0
 H,3,R5,2,A5,1,D5,0
 C,3,R6,2,A6,5,D6,0
 C,4,R7,2,A7,1,D7,0
 C,4,R8,2,A8,7,D8,0
 H,6,R9,3,A9,2,D9,0
 H,8,R10,4,A10,2,D10,0
 H,7,R11,4,A11,2,D11,0
 C,8,R12,4,A12,10,D12,0
 H,12,R13,8,A13,4,D13,0
 C,12,R14,8,A14,13,D14,0
 H,14,R15,12,A15,8,D15,0
 C,14,R16,12,A16,15,D16,0
 O,16,R17,14,A17,12,D17,0
      Variables:
 R2=1.0063713
 R3=1.35702441
 R4=1.3841683
 R5=1.07679871
 R6=1.3800198
 R7=1.39333351
 R8=1.43619568
 R9=1.07701811
 R10=1.08647911
 R11=1.07538584
 R12=1.34903548
 R13=1.08320386
 R14=1.46085167
 R15=1.08710432
 R16=1.31532443
 R17=1.16565828
 A3=125.82577765
 A4=123.27211623
 A5=121.57515384
 A6=107.66947487
 A7=105.9192642
 A8=118.49913118
 A9=125.43561362
 A10=113.32986406
 A11=126.47204705
 A12=132.71958384
 A13=116.06994909
 A14=131.44689773
 A15=117.40844817
 A16=131.01494914
 A17=175.78501688
 D4=-183.05226069
 D5=-2.34071
 D6=-179.92915541
 D7=182.11220215
 D8=177.16292431
 D9=-179.89530768
 D10=-2.47169361
 D11=178.74708492
 D12=-178.07605643
 D13=175.4830166
 D14=181.00721187
 D15=156.2649717
 D16=174.89433545
 D17=186.08479524
 Recover connectivity data from disk.

 GradGradGradGradGradGradGradGradGradGradGradGradGradGradGradGradGradGrad
 Berny optimization.
 Initialization pass.
                       ----------------------------
                       !    Initial Parameters    !
                       ! (Angstroms and Degrees)  !
 ----------------------                            ----------------------
 !      Name          Value   Derivative information (Atomic Units)     !
 ------------------------------------------------------------------------
 !       R2          1.0064   estimate D2E/DX2                          !
 !       R3          1.357    estimate D2E/DX2                          !
 !       R4          1.3842   estimate D2E/DX2                          !
 !       R5          1.0768   estimate D2E/DX2                          !
 !       R6          1.38     estimate D2E/DX2                          !
 !       R7          1.3933   estimate D2E/DX2                          !
 !       R8          1.4362   estimate D2E/DX2                          !
 !       R9          1.077    estimate D2E/DX2                          !
 !       R10         1.0865   estimate D2E/DX2                          !
 !       R11         1.0754   estimate D2E/DX2                          !
 !       R12         1.349    estimate D2E/DX2                          !
 !       R13         1.0832   estimate D2E/DX2                          !
 !       R14         1.4609   estimate D2E/DX2                          !
 !       R15         1.0871   estimate D2E/DX2                          !
 !       R16         1.3153   estimate D2E/DX2                          !
 !       R17         1.1657   estimate D2E/DX2                          !
 !       A3        125.8258   estimate D2E/DX2                          !
 !       A4        123.2721   estimate D2E/DX2                          !
 !       A5        121.5752   estimate D2E/DX2                          !
 !       A6        107.6695   estimate D2E/DX2                          !
 !       A7        105.9193   estimate D2E/DX2                          !
 !       A8        118.4991   estimate D2E/DX2                          !
 !       A9        125.4356   estimate D2E/DX2                          !
 !       A10       113.3299   estimate D2E/DX2                          !
 !       A11       126.472    estimate D2E/DX2                          !
 !       A12       132.7196   estimate D2E/DX2                          !
 !       A13       116.0699   estimate D2E/DX2                          !
 !       A14       131.4469   estimate D2E/DX2                          !
 !       A15       117.4084   estimate D2E/DX2                          !
 !       A16       131.0149   estimate D2E/DX2                          !
 !       A17       175.785    estimate D2E/DX2                          !
 !       D4       -183.0523   estimate D2E/DX2                          !
 !       D5         -2.3407   estimate D2E/DX2                          !
 !       D6       -179.9292   estimate D2E/DX2                          !
 !       D7        182.1122   estimate D2E/DX2                          !
 !       D8        177.1629   estimate D2E/DX2                          !
 !       D9       -179.8953   estimate D2E/DX2                          !
 !       D10        -2.4717   estimate D2E/DX2                          !
 !       D11       178.7471   estimate D2E/DX2                          !
 !       D12      -178.0761   estimate D2E/DX2                          !
 !       D13       175.483    estimate D2E/DX2                          !
 !       D14       181.0072   estimate D2E/DX2                          !
 !       D15       156.265    estimate D2E/DX2                          !
 !       D16       174.8943   estimate D2E/DX2                          !
 !       D17       186.0848   estimate D2E/DX2                          !
 ------------------------------------------------------------------------
 Trust Radius=1.00D-01 FncErr=1.00D-07 GrdErr=1.00D-06 EigMax=2.50D+02 EigMin=1.00D-04
 Number of steps in this run=     55 maximum allowed number of steps=    100.
 GradGradGradGradGradGradGradGradGradGradGradGradGradGradGradGradGradGrad

 ---------------------------------------------------------------------------------------------------
                            Z-MATRIX (ANGSTROMS AND DEGREES)
   CD    Cent   Atom    N1       Length/X        N2       Alpha/Y        N3        Beta/Z          J
 ---------------------------------------------------------------------------------------------------
      1      1  H 
      2      2  N        1   1.006371(     1)
      3      3  C        2   1.357024(     2)      1  125.826(    17)
      4      4  C        2   1.384168(     3)      1  123.272(    18)      3 -183.052(    32)      0
      5      5  H        3   1.076799(     4)      2  121.575(    19)      1   -2.341(    33)      0
      6      6  C        3   1.380020(     5)      2  107.669(    20)      5 -179.929(    34)      0
      7      7  C        4   1.393334(     6)      2  105.919(    21)      1  182.112(    35)      0
      8      8  C        4   1.436196(     7)      2  118.499(    22)      7  177.163(    36)      0
      9      9  H        6   1.077018(     8)      3  125.436(    23)      2 -179.895(    37)      0
     10     10  H        8   1.086479(     9)      4  113.330(    24)      2   -2.472(    38)      0
     11     11  H        7   1.075386(    10)      4  126.472(    25)      2  178.747(    39)      0
     12     12  C        8   1.349035(    11)      4  132.720(    26)     10 -178.076(    40)      0
     13     13  H       12   1.083204(    12)      8  116.070(    27)      4  175.483(    41)      0
     14     14  C       12   1.460852(    13)      8  131.447(    28)     13  181.007(    42)      0
     15     15  H       14   1.087104(    14)     12  117.408(    29)      8  156.265(    43)      0
     16     16  C       14   1.315324(    15)     12  131.015(    30)     15  174.894(    44)      0
     17     17  O       16   1.165658(    16)     14  175.785(    31)     12  186.085(    45)      0
 ---------------------------------------------------------------------------------------------------
                         Z-Matrix orientation:                         
 ---------------------------------------------------------------------
 Center     Atomic      Atomic             Coordinates (Angstroms)
 Number     Number       Type             X           Y           Z
 ---------------------------------------------------------------------
      1          1           0        0.000000    0.000000    0.000000
      2          7           0        0.000000    0.000000    1.006371
      3          6           0        1.100276    0.000000    1.800668
      4          6           0       -1.155626    0.061621    1.765748
      5          1           0        2.093946   -0.037468    1.387496
      6          6           0        0.670852    0.052079    3.111140
      7          6           0       -0.738515    0.088834    3.094904
      8          6           0       -2.418309    0.144941    1.086522
      9          1           0        1.310284    0.066697    3.977674
     10          1           0       -2.322895    0.193751    0.005342
     11          1           0       -1.370945    0.155416    3.962115
     12          6           0       -3.691952    0.207565    1.526757
     13          1           0       -4.452250    0.341174    0.766871
     14          6           0       -4.253531    0.146081    2.873953
     15          1           0       -5.229434    0.598759    3.030453
     16          6           0       -3.821597   -0.452359    3.962705
     17          8           0       -3.512213   -0.959785    4.965481
 ---------------------------------------------------------------------
                    Distance matrix (angstroms):
                    1          2          3          4          5
     1  H    0.000000
     2  N    1.006371   0.000000
     3  C    2.110217   1.357024   0.000000
     4  C    2.111193   1.384168   2.257014   0.000000
     5  H    2.512203   2.128678   1.076799   3.273013   0.000000
     6  C    3.183072   2.209707   1.380020   2.268522   2.236999
     7  C    3.183038   2.217040   2.250354   1.393334   3.309688
     8  C    2.655138   2.423974   3.593251   1.436196   4.525959
     9  H    4.188458   3.248066   2.188129   3.312605   2.708136
    10  H    2.330967   2.536817   3.870250   2.116366   4.633821
    11  H    4.195474   3.261911   3.286783   2.208888   4.321034
    12  C    4.000573   3.734220   4.804536   2.551738   5.792759
    13  H    4.530675   4.471721   5.658240   3.455956   6.586443
    14  C    5.135511   4.647766   5.462283   3.291241   6.521788
    15  H    6.073643   5.639362   6.475810   4.299292   7.532330
    16  C    5.523791   4.852746   5.394800   3.492592   6.465098
    17  O    6.157339   5.378789   5.675586   4.103055   6.714288
                    6          7          8          9         10
     6  C    0.000000
     7  C    1.409940   0.000000
     8  C    3.694674   2.618865   0.000000
     9  H    1.077018   2.230997   4.718822   0.000000
    10  H    4.316083   3.473710   1.086479   5.384752   0.000000
    11  H    2.214446   1.075386   3.060411   2.682741   4.069857
    12  C    4.644190   3.346038   1.349035   5.572181   2.046757
    13  H    5.641395   4.390357   2.068236   6.602377   2.266233
    14  C    4.930988   3.522419   2.561826   5.672789   3.458115
    15  H    5.926107   4.520236   3.447788   6.629346   4.214653
    16  C    4.600187   3.248286   3.255520   5.158085   4.280688
    17  O    4.686200   3.506002   4.178919   5.028508   5.229541
                   11         12         13         14         15
    11  H    0.000000
    12  C    3.364634   0.000000
    13  H    4.442807   1.083204   0.000000
    14  C    3.081151   1.460852   2.125405   0.000000
    15  H    3.994057   2.185860   2.407109   1.087104   0.000000
    16  C    2.524894   2.527083   3.352726   1.315324   1.988956
    17  O    2.614468   3.635909   4.494940   2.479311   3.020305
                   16         17
    16  C    0.000000
    17  O    1.165658   0.000000
 Symmetry turned off by external request.
 Stoichiometry    C8H7NO
 Framework group  C1[X(C8H7NO)]
 Deg. of freedom    45
 Full point group                 C1      NOp   1
 Rotational constants (GHZ):           2.5257099           0.9022854           0.6775874
 Standard basis: def2TZVP (5D, 7F)
 The following finite field(s) will be applied:
 An electric field of             -0.0082 -0.0014  0.0056
   352 basis functions,   566 primitive gaussians,   402 cartesian basis functions
    35 alpha electrons       35 beta electrons
       nuclear repulsion energy       456.0372873669 Hartrees.
 NAtoms=   17 NActive=   17 NUniq=   17 SFac= 1.00D+00 NAtFMM=   60 NAOKFM=F Big=F
 Integral buffers will be    131072 words long.
 Raffenetti 2 integral format.
 Two-electron integral symmetry is turned off.
 One-electron integrals computed using PRISM.
   1 Symmetry operations used in ECPInt.
 ECPInt:  NShTT=    9591 NPrTT=   29644 LenC2=    9176 LenP2D=   21995.
 LDataN:  DoStor=T MaxTD1= 6 Len=  172
 NBasis=   352 RedAO= T EigKep=  3.03D-05  NBF=   352
 NBsUse=   352 1.00D-06 EigRej= -1.00D+00 NBFU=   352
 The nuclear repulsion energy is now       459.8088671271 hartrees.
 Initial guess from the checkpoint file:  "checkpoint.chk"
 B after Tr=     0.000000    0.000000    0.000000
         Rot=    1.000000   -0.000000    0.000000    0.000000 Ang=   0.00 deg.
 Requested convergence on RMS density matrix=1.00D-08 within 128 cycles.
 Requested convergence on MAX density matrix=1.00D-06.
 Requested convergence on             energy=1.00D-06.
 No special actions if energy rises.
 SCF Done:  E(RB3LYP) =  -439.166727215     A.U. after   11 cycles
            NFock= 11  Conv=0.66D-08     -V/T= 2.0050
   1 Symmetry operations used in ECPInt.
 ECPInt:  NShTT=    9591 NPrTT=   29644 LenC2=    9176 LenP2D=   21995.
 LDataN:  DoStor=T MaxTD1= 7 Len=  274
 Calling FoFJK, ICntrl=      2127 FMM=F ISym2X=0 I1Cent= 0 IOpClX= 0 NMat=1 NMatS=1 NMatT=0.
 -------------------------------------------------------------------
 Center     Atomic                   Forces (Hartrees/Bohr)
 Number     Number              X              Y              Z
 -------------------------------------------------------------------
      1        1           0.003343171   -0.000300299   -0.000489678
      2        7          -0.001809877    0.000954260    0.001032130
      3        6          -0.001102687   -0.000592230   -0.001663061
      4        6          -0.001181128   -0.000087395   -0.001594693
      5        1           0.000192666    0.000067081   -0.000083486
      6        6          -0.001176317   -0.000033426    0.000986330
      7        6           0.000922112   -0.000103203    0.000747756
      8        6           0.002143805   -0.000000082    0.000854424
      9        1           0.000134679    0.000056852   -0.000147706
     10        1          -0.000026897    0.000000803    0.000090124
     11        1          -0.000039688    0.000105553    0.000125647
     12        6          -0.001010771    0.000267576   -0.000956798
     13        1          -0.000078133    0.000007561    0.000008380
     14        6           0.000300625   -0.000704374    0.000841866
     15        1          -0.000045594    0.000295320    0.000109731
     16        6          -0.001041837    0.001414641   -0.003288243
     17        8           0.000475871   -0.001348638    0.003427278
 -------------------------------------------------------------------
 Cartesian Forces:  Max     0.003427278 RMS     0.001132164
 -----------------------------------------------------------------------------------------------
                       Internal Coordinate Forces (Hartree/Bohr or radian)
  Cent   Atom   N1       Length/X         N2         Alpha/Y        N3         Beta/Z          J
 -----------------------------------------------------------------------------------------------
      1  H 
      2  N        1   0.000490(     1)
      3  C        2  -0.002114(     2)      1   0.002535(    17)
      4  C        2  -0.000156(     3)      1   0.002200(    18)      3  -0.000589(    32)     0
      5  H        3   0.000207(     4)      2  -0.000003(    19)      1   0.000157(    33)     0
      6  C        3   0.001121(     5)      2  -0.001505(    20)      5   0.000028(    34)     0
      7  C        4   0.001097(     6)      2  -0.001613(    21)      1  -0.000270(    35)     0
      8  C        4  -0.001148(     7)      2  -0.000823(    22)      7  -0.000350(    36)     0
      9  H        6  -0.000038(     8)      3  -0.000395(    23)      2   0.000107(    37)     0
     10  H        8  -0.000092(     9)      4   0.000039(    24)      2   0.000366(    38)     0
     11  H        7   0.000131(    10)      4   0.000081(    25)      2  -0.000161(    39)     0
     12  C        8   0.001365(    11)      4   0.002544(    26)     10   0.000374(    40)     0
     13  H       12   0.000050(    12)      8   0.000125(    27)      4  -0.000190(    41)     0
     14  C       12   0.001140(    13)      8   0.001919(    28)     13  -0.000187(    42)     0
     15  H       14   0.000180(    14)     12   0.000055(    29)      8  -0.000830(    43)     0
     16  C       14  -0.000101(    15)     12   0.002711(    30)     15  -0.000353(    44)     0
     17  O       16   0.003662(    16)     14  -0.001351(    31)     12  -0.000014(    45)     0
 -----------------------------------------------------------------------------------------------
 Internal  Forces:  Max     0.003661753 RMS     0.001185835

 GradGradGradGradGradGradGradGradGradGradGradGradGradGradGradGradGradGrad
 Berny optimization.
 Search for a local minimum.
 Step number   1 out of a maximum of   55
 All quantities printed in internal units (Hartrees-Bohrs-Radians)
 Second derivative matrix not updated -- first step.
 ITU=  0
     Eigenvalues ---   -1.47193  -1.19313  -0.16964   0.01249   0.02541
     Eigenvalues ---    0.03309   0.04277   0.05049   0.06181   0.07814
     Eigenvalues ---    0.10201   0.10802   0.12408   0.16126   0.17591
     Eigenvalues ---    0.18152   0.18627   0.19359   0.23747   0.25440
     Eigenvalues ---    0.30098   0.31211   0.35152   0.35220   0.35610
     Eigenvalues ---    0.36358   0.36384   0.36558   0.36859   0.38443
     Eigenvalues ---    0.40117   0.45003   0.46585   0.47785   0.48265
     Eigenvalues ---    0.49085   0.51379   0.55181   0.55232   0.63125
     Eigenvalues ---    0.63722   1.16787   1.24162   1.84460  21.14289
 RFO step:  Lambda=-1.47192885D+00 EMin=-1.47192796D+00
 I=     1 Eig=   -1.47D+00 Dot1=  2.86D-04
 I=     1 Stepn=  2.50D-01 RXN=   2.50D-01 EDone=F
 I=     2 Eig=   -1.19D+00 Dot1=  4.54D-04
 I=     2 Stepn=  1.25D-01 RXN=   2.80D-01 EDone=F
 I=     3 Eig=   -1.70D-01 Dot1=  1.18D-06
 I=     3 Stepn=  6.25D-02 RXN=   2.86D-01 EDone=F
 Mixed    3 eigenvectors in step.  Raw Step.Grad=  7.41D-04.
 RFO eigenvector is Hessian eigenvector with negative curvature.
 Taking step of  2.86D-01 in eigenvector direction(s).  Step.Grad= -4.62D-04.
 Linear search not attempted -- first point.
 Maximum step size (   0.100) exceeded in Quadratic search.
    -- Step size scaled by   0.349
 Variable       Old X    -DE/DX   Delta X   Delta X   Delta X     New X
                                 (Linear)    (Quad)   (Total)
    R2        1.90177   0.00049   0.00000   0.00000   0.00000   1.90177
    R3        2.56440  -0.00211   0.00000  -0.00211  -0.00211   2.56229
    R4        2.61570  -0.00016   0.00000  -0.00305  -0.00305   2.61265
    R5        2.03485   0.00021   0.00000  -0.00000  -0.00000   2.03485
    R6        2.60786   0.00112   0.00000   0.00165   0.00165   2.60951
    R7        2.63302   0.00110   0.00000   0.00031   0.00031   2.63333
    R8        2.71402  -0.00115   0.00000  -0.00019  -0.00019   2.71382
    R9        2.03527  -0.00004   0.00000  -0.00002  -0.00002   2.03525
   R10        2.05315  -0.00009   0.00000   0.00008   0.00008   2.05323
   R11        2.03218   0.00013   0.00000  -0.00002  -0.00002   2.03216
   R12        2.54931   0.00136   0.00000   0.00012   0.00012   2.54943
   R13        2.04696   0.00005   0.00000   0.00007   0.00007   2.04703
   R14        2.76061   0.00114   0.00000  -0.00034  -0.00034   2.76027
   R15        2.05433   0.00018   0.00000  -0.00031  -0.00031   2.05402
   R16        2.48560  -0.00010   0.00000  -0.00068  -0.00068   2.48492
   R17        2.20277   0.00366   0.00000   0.00003   0.00003   2.20281
    A3        2.19607   0.00254   0.00000   0.01852   0.01852   2.21459
    A4        2.15150   0.00220   0.00000  -0.02889  -0.02889   2.12262
    A5        2.12189  -0.00000   0.00000   0.00066   0.00066   2.12254
    A6        1.87919  -0.00151   0.00000  -0.00724  -0.00724   1.87195
    A7        1.84864  -0.00161   0.00000  -0.00275  -0.00275   1.84589
    A8        2.06820  -0.00082   0.00000  -0.03533  -0.03533   2.03287
    A9        2.18926  -0.00039   0.00000  -0.00007  -0.00007   2.18919
   A10        1.97798   0.00004   0.00000  -0.00544  -0.00544   1.97253
   A11        2.20735   0.00008   0.00000  -0.00029  -0.00029   2.20706
   A12        2.31639   0.00254   0.00000   0.03737   0.03737   2.35376
   A13        2.02580   0.00013   0.00000  -0.00657  -0.00657   2.01923
   A14        2.29418   0.00192   0.00000   0.03082   0.03082   2.32500
   A15        2.04916   0.00005   0.00000  -0.00888  -0.00888   2.04029
   A16        2.28664   0.00271   0.00000   0.03039   0.03039   2.31703
   A17        3.06803  -0.00135   0.00000  -0.01603  -0.01603   3.05200
    D4       -3.19486  -0.00059   0.00000   0.00831   0.00831  -3.18656
    D5       -0.04085   0.00016   0.00000  -0.00182  -0.00182  -0.04267
    D6       -3.14036   0.00003   0.00000  -0.00324  -0.00324  -3.14359
    D7        3.17846  -0.00027   0.00000   0.02074   0.02074   3.19919
    D8        3.09208  -0.00035   0.00000   0.02684   0.02684   3.11892
    D9       -3.13977   0.00011   0.00000   0.00060   0.00060  -3.13917
   D10       -0.04314   0.00037   0.00000   0.01902   0.01902  -0.02412
   D11        3.11973  -0.00016   0.00000  -0.00045  -0.00045   3.11928
   D12       -3.10801   0.00037   0.00000   0.01873   0.01873  -3.08928
   D13        3.06276  -0.00019   0.00000   0.02957   0.02957   3.09232
   D14        3.15917  -0.00019   0.00000   0.02582   0.02582   3.18499
   D15        2.72734  -0.00083   0.00000   0.01625   0.01625   2.74358
   D16        3.05248  -0.00035   0.00000   0.00817   0.00817   3.06065
   D17        3.24779  -0.00001   0.00000  -0.00053  -0.00053   3.24726
         Item               Value     Threshold  Converged?
 Maximum Force            0.003662     0.000450     NO 
 RMS     Force            0.001186     0.000300     NO 
 Maximum Displacement     0.037365     0.001800     NO 
 RMS     Displacement     0.014907     0.001200     NO 
 Predicted change in Energy=-7.042866D-03
 GradGradGradGradGradGradGradGradGradGradGradGradGradGradGradGradGradGrad

 ---------------------------------------------------------------------------------------------------
                            Z-MATRIX (ANGSTROMS AND DEGREES)
   CD    Cent   Atom    N1       Length/X        N2       Alpha/Y        N3        Beta/Z          J
 ---------------------------------------------------------------------------------------------------
      1      1  H 
      2      2  N        1   1.006371(     1)
      3      3  C        2   1.355908(     2)      1  126.887(    17)
      4      4  C        2   1.382555(     3)      1  121.617(    18)      3 -182.576(    32)      0
      5      5  H        3   1.076797(     4)      2  121.613(    19)      1   -2.445(    33)      0
      6      6  C        3   1.380891(     5)      2  107.255(    20)      5 -180.115(    34)      0
      7      7  C        4   1.393496(     6)      2  105.762(    21)      1  183.300(    35)      0
      8      8  C        4   1.436093(     7)      2  116.475(    22)      7  178.701(    36)      0
      9      9  H        6   1.077008(     8)      3  125.432(    23)      2 -179.861(    37)      0
     10     10  H        8   1.086520(     9)      4  113.018(    24)      2   -1.382(    38)      0
     11     11  H        7   1.075374(    10)      4  126.455(    25)      2  178.721(    39)      0
     12     12  C        8   1.349099(    11)      4  134.860(    26)     10 -177.003(    40)      0
     13     13  H       12   1.083242(    12)      8  115.693(    27)      4  177.177(    41)      0
     14     14  C       12   1.460670(    13)      8  133.213(    28)     13  182.487(    42)      0
     15     15  H       14   1.086942(    14)     12  116.900(    29)      8  157.196(    43)      0
     16     16  C       14   1.314964(    15)     12  132.756(    30)     15  175.362(    44)      0
     17     17  O       16   1.165676(    16)     14  174.867(    31)     12  186.054(    45)      0
 ---------------------------------------------------------------------------------------------------
                         Z-Matrix orientation:                         
 ---------------------------------------------------------------------
 Center     Atomic      Atomic             Coordinates (Angstroms)
 Number     Number       Type             X           Y           Z
 ---------------------------------------------------------------------
      1          1           0        0.000000    0.000000    0.000000
      2          7           0        0.000000    0.000000    1.006371
      3          6           0        1.084485    0.000000    1.820238
      4          6           0       -1.176154    0.052922    1.731161
      5          1           0        2.085852   -0.039117    1.426252
      6          6           0        0.621321    0.058891    3.119804
      7          6           0       -0.793515    0.112988    3.069746
      8          6           0       -2.395624    0.062859    0.972769
      9          1           0        1.238341    0.076022    4.002378
     10          1           0       -2.228425    0.050592   -0.100739
     11          1           0       -1.449167    0.183681    3.919188
     12          6           0       -3.707195    0.133960    1.280653
     13          1           0       -4.386524    0.165058    0.437470
     14          6           0       -4.434378    0.225877    2.544106
     15          1           0       -5.437117    0.643532    2.505119
     16          6           0       -4.155632   -0.173285    3.765622
     17          8           0       -4.004980   -0.497390    4.875153
 ---------------------------------------------------------------------
                    Distance matrix (angstroms):
                    1          2          3          4          5
     1  H    0.000000
     2  N    1.006371   0.000000
     3  C    2.118814   1.355908   0.000000
     4  C    2.093575   1.382555   2.263012   0.000000
     5  H    2.527154   2.128053   1.076797   3.277518   0.000000
     6  C    3.181616   2.203657   1.380891   2.271405   2.241110
     7  C    3.172660   2.213582   2.258521   1.393496   3.318879
     8  C    2.586357   2.396684   3.582361   1.436093   4.505516
     9  H    4.190262   3.242734   2.188878   3.314929   2.714398
    10  H    2.231274   2.488801   3.829893   2.112614   4.577416
    11  H    4.182566   3.258577   3.295258   2.208868   4.331366
    12  C    3.924451   3.719741   4.823825   2.572099   5.797461
    13  H    4.411374   4.426340   5.645461   3.463046   6.550651
    14  C    5.117343   4.698867   5.570713   3.362560   6.620666
    15  H    6.020964   5.676498   6.588967   4.370771   7.630533
    16  C    5.610634   4.991270   5.592260   3.614899   6.666842
    17  O    6.328853   5.590594   5.956724   4.264949   7.014497
                    6          7          8          9         10
     6  C    0.000000
     7  C    1.416754   0.000000
     8  C    3.702935   2.639428   0.000000
     9  H    1.077008   2.235980   4.731217   0.000000
    10  H    4.300350   3.480637   1.086520   5.371656   0.000000
    11  H    2.222950   1.075374   3.097058   2.690950   4.096922
    12  C    4.703633   3.419185   1.349099   5.645305   2.025329
    13  H    5.681962   4.454358   2.064140   6.660001   2.227143
    14  C    5.091110   3.680343   2.579185   5.859074   3.448501
    15  H    6.117541   4.707794   3.454846   6.864809   4.175858
    16  C    4.825999   3.445291   3.309596   5.404920   4.325853
    17  O    4.979293   3.734377   4.258229   5.346303   5.311868
                   11         12         13         14         15
    11  H    0.000000
    12  C    3.473187   0.000000
    13  H    4.555302   1.083242   0.000000
    14  C    3.286961   1.460670   2.108057   0.000000
    15  H    4.256148   2.179819   2.368092   1.086942   0.000000
    16  C    2.734220   2.543730   3.353265   1.314964   1.974402
    17  O    2.812456   3.661654   4.503049   2.478161   2.994959
                   16         17
    16  C    0.000000
    17  O    1.165676   0.000000
 Symmetry turned off by external request.
 Stoichiometry    C8H7NO
 Framework group  C1[X(C8H7NO)]
 Deg. of freedom    45
 Full point group                 C1      NOp   1
 Rotational constants (GHZ):           2.6000572           0.8430459           0.6420815
 Standard basis: def2TZVP (5D, 7F)
 The following finite field(s) will be applied:
 An electric field of             -0.0082 -0.0014  0.0056
   352 basis functions,   566 primitive gaussians,   402 cartesian basis functions
    35 alpha electrons       35 beta electrons
       nuclear repulsion energy       452.0327678624 Hartrees.
 NAtoms=   17 NActive=   17 NUniq=   17 SFac= 1.00D+00 NAtFMM=   60 NAOKFM=F Big=F
 Integral buffers will be    131072 words long.
 Raffenetti 2 integral format.
 Two-electron integral symmetry is turned off.
 One-electron integrals computed using PRISM.
   1 Symmetry operations used in ECPInt.
 ECPInt:  NShTT=    9591 NPrTT=   29644 LenC2=    9133 LenP2D=   21857.
 LDataN:  DoStor=T MaxTD1= 6 Len=  172
 NBasis=   352 RedAO= T EigKep=  3.01D-05  NBF=   352
 NBsUse=   352 1.00D-06 EigRej= -1.00D+00 NBFU=   352
 The nuclear repulsion energy is now       455.8410464412 hartrees.
 Initial guess from the checkpoint file:  "checkpoint.chk"
 B after Tr=     0.110568   -0.413089    0.072935
         Rot=    0.997967    0.051880    0.035834    0.009248 Ang=   7.31 deg.
 ExpMin= 9.52D-02 ExpMax= 2.70D+04 ExpMxC= 9.22D+02 IAcc=2 IRadAn=         4 AccDes= 0.00D+00
 Harris functional with IExCor=  402 and IRadAn=       4 diagonalized for initial guess.
 HarFok:  IExCor=  402 AccDes= 0.00D+00 IRadAn=         4 IDoV= 1 UseB2=F ITyADJ=14
 ICtDFT=  3500011 ScaDFX=  1.000000  1.000000  1.000000  1.000000
 FoFCou: FMM=F IPFlag=           0 FMFlag=      100000 FMFlg1=           0
         NFxFlg=           0 DoJE=T BraDBF=F KetDBF=T FulRan=T
         wScrn=  0.000000 ICntrl=       500 IOpCl=  0 I1Cent=   200000004 NGrid=           0
         NMat0=    1 NMatS0=      1 NMatT0=    0 NMatD0=    1 NMtDS0=    0 NMtDT0=    0
 Symmetry not used in FoFCou.
 Requested convergence on RMS density matrix=1.00D-08 within 128 cycles.
 Requested convergence on MAX density matrix=1.00D-06.
 Requested convergence on             energy=1.00D-06.
 No special actions if energy rises.
 Integral accuracy reduced to 1.0D-05 until final iterations.
 Initial convergence to 1.0D-05 achieved.  Increase integral accuracy.
 SCF Done:  E(RB3LYP) =  -439.165635631     A.U. after   14 cycles
            NFock= 14  Conv=0.65D-08     -V/T= 2.0050
   1 Symmetry operations used in ECPInt.
 ECPInt:  NShTT=    9591 NPrTT=   29644 LenC2=    9133 LenP2D=   21857.
 LDataN:  DoStor=T MaxTD1= 7 Len=  274
 Calling FoFJK, ICntrl=      2127 FMM=F ISym2X=0 I1Cent= 0 IOpClX= 0 NMat=1 NMatS=1 NMatT=0.
 -------------------------------------------------------------------
 Center     Atomic                   Forces (Hartrees/Bohr)
 Number     Number              X              Y              Z
 -------------------------------------------------------------------
      1        1           0.006065529   -0.000845180   -0.000560948
      2        7          -0.001632957   -0.001370670   -0.001712348
      3        6          -0.003509821    0.000038696   -0.001067372
      4        6           0.000598079    0.002356240   -0.002296403
      5        1           0.000238806    0.000197514    0.000315347
      6        6          -0.004970290    0.002139458    0.001452808
      7        6           0.003190783   -0.003496845    0.000143169
      8        6          -0.001595339    0.002479934    0.001103731
      9        1           0.000072995    0.000322548   -0.000065073
     10        1           0.001620772   -0.001855636    0.000259591
     11        1          -0.001020588   -0.000499882    0.000968983
     12        6          -0.002937021    0.001095002    0.000497918
     13        1           0.000959428    0.000653093   -0.000711079
     14        6           0.001786392   -0.002211599    0.002651373
     15        1          -0.000544207    0.000633335   -0.000662204
     16        6           0.000059312    0.002188508   -0.006443130
     17        8           0.001618128   -0.001824517    0.006125638
 -------------------------------------------------------------------
 Cartesian Forces:  Max     0.006443130 RMS     0.002259198
 -----------------------------------------------------------------------------------------------
                       Internal Coordinate Forces (Hartree/Bohr or radian)
  Cent   Atom   N1       Length/X         N2         Alpha/Y        N3         Beta/Z          J
 -----------------------------------------------------------------------------------------------
      1  H 
      2  N        1   0.000561(     1)
      3  C        2  -0.006152(     2)      1   0.025255(    17)
      4  C        2  -0.002338(     3)      1   0.030767(    18)      3  -0.004943(    32)     0
      5  H        3   0.000100(     4)      2   0.000784(    19)      1  -0.005552(    33)     0
      6  C        3   0.003054(     5)      2  -0.010732(    20)      5  -0.005886(    34)     0
      7  C        4   0.001492(     6)      2  -0.004523(    21)      1  -0.012499(    35)     0
      8  C        4  -0.002304(     7)      2   0.017319(    22)      7  -0.001912(    36)     0
      9  H        6  -0.000006(     8)      3  -0.000171(    23)      2   0.000541(    37)     0
     10  H        8   0.000014(     9)      4  -0.003417(    24)      2   0.000981(    38)     0
     11  H        7   0.001355(    10)      4  -0.000445(    25)      2   0.000963(    39)     0
     12  C        8  -0.000555(    11)      4  -0.015556(    26)     10  -0.002487(    40)     0
     13  H       12  -0.000029(    12)      8  -0.002380(    27)      4  -0.002176(    41)     0
     14  C       12  -0.000084(    13)      8  -0.013695(    28)     13  -0.000872(    42)     0
     15  H       14   0.000769(    14)     12  -0.001405(    29)      8   0.001783(    43)     0
     16  C       14  -0.000050(    15)     12  -0.005135(    30)     15   0.002289(    44)     0
     17  O       16   0.006547(    16)     14   0.001635(    31)     12  -0.000047(    45)     0
 -----------------------------------------------------------------------------------------------
 Internal  Forces:  Max     0.030767438 RMS     0.007995777

 GradGradGradGradGradGradGradGradGradGradGradGradGradGradGradGradGradGrad
 Berny optimization.
 Search for a local minimum.
 Step number   2 out of a maximum of   55
 All quantities printed in internal units (Hartrees-Bohrs-Radians)
 Update second derivatives using D2CorN and points    2    1
 ITU=  0  0
     Eigenvalues ---   -1.26026  -0.26913   0.01241   0.02414   0.03302
     Eigenvalues ---    0.04254   0.05035   0.06181   0.07700   0.09883
     Eigenvalues ---    0.10802   0.12394   0.15537   0.17426   0.17966
     Eigenvalues ---    0.18611   0.19144   0.23713   0.25439   0.27384
     Eigenvalues ---    0.30196   0.33106   0.35157   0.35224   0.35610
     Eigenvalues ---    0.36358   0.36384   0.36573   0.36872   0.40095
     Eigenvalues ---    0.40847   0.46079   0.46586   0.47797   0.48284
     Eigenvalues ---    0.49105   0.51393   0.55185   0.55267   0.63125
     Eigenvalues ---    0.64151   1.17190   1.24185   1.84501  21.14434
 RFO step:  Lambda=-1.26026467D+00 EMin=-1.26026322D+00
 I=     1 Eig=   -1.26D+00 Dot1= -3.38D-04
 I=     1 Stepn= -2.50D-01 RXN=   2.50D-01 EDone=F
 I=     2 Eig=   -2.69D-01 Dot1=  1.29D-04
 I=     2 Stepn=  1.25D-01 RXN=   2.80D-01 EDone=F
 Mixed    2 eigenvectors in step.  Raw Step.Grad=  4.67D-04.
 RFO eigenvector is Hessian eigenvector with negative curvature.
 Taking step of  2.80D-01 in eigenvector direction(s).  Step.Grad=  7.30D-04.
 Quartic linear search produced a step of -0.90400.
 Maximum step size (   0.100) exceeded in Quadratic search.
    -- Step size scaled by   0.358
 Variable       Old X    -DE/DX   Delta X   Delta X   Delta X     New X
                                 (Linear)    (Quad)   (Total)
    R2        1.90177   0.00056  -0.00000   0.00000   0.00000   1.90177
    R3        2.56229  -0.00615   0.00191  -0.00158   0.00033   2.56262
    R4        2.61265  -0.00234   0.00276  -0.00176   0.00099   2.61364
    R5        2.03485   0.00010   0.00000  -0.00001  -0.00001   2.03485
    R6        2.60951   0.00305  -0.00149   0.00086  -0.00063   2.60888
    R7        2.63333   0.00149  -0.00028   0.00029   0.00001   2.63334
    R8        2.71382  -0.00230   0.00018  -0.00007   0.00011   2.71393
    R9        2.03525  -0.00001   0.00002  -0.00000   0.00002   2.03527
   R10        2.05323   0.00001  -0.00007   0.00004  -0.00003   2.05319
   R11        2.03216   0.00135   0.00002   0.00010   0.00012   2.03229
   R12        2.54943  -0.00055  -0.00011  -0.00030  -0.00041   2.54902
   R13        2.04703  -0.00003  -0.00007  -0.00005  -0.00011   2.04692
   R14        2.76027  -0.00008   0.00031  -0.00028   0.00003   2.76029
   R15        2.05402   0.00077   0.00028   0.00033   0.00061   2.05463
   R16        2.48492  -0.00005   0.00062   0.00018   0.00079   2.48571
   R17        2.20281   0.00655  -0.00003   0.00017   0.00014   2.20294
    A3        2.21459   0.02525  -0.01674   0.01052  -0.00623   2.20837
    A4        2.12262   0.03077   0.02611  -0.01930   0.00681   2.12943
    A5        2.12254   0.00078  -0.00059   0.00032  -0.00027   2.12227
    A6        1.87195  -0.01073   0.00654  -0.00489   0.00166   1.87361
    A7        1.84589  -0.00452   0.00249  -0.00206   0.00043   1.84631
    A8        2.03287   0.01732   0.03194  -0.02427   0.00767   2.04053
    A9        2.18919  -0.00017   0.00006  -0.00003   0.00003   2.18923
   A10        1.97253  -0.00342   0.00492  -0.00188   0.00304   1.97557
   A11        2.20706  -0.00044   0.00027  -0.00020   0.00006   2.20712
   A12        2.35376  -0.01556  -0.03378   0.02439  -0.00939   2.34437
   A13        2.01923  -0.00238   0.00594  -0.00327   0.00267   2.02190
   A14        2.32500  -0.01370  -0.02786   0.02324  -0.00463   2.32038
   A15        2.04029  -0.00140   0.00803  -0.00535   0.00268   2.04296
   A16        2.31703  -0.00513  -0.02747   0.01475  -0.01272   2.30431
   A17        3.05200   0.00164   0.01449  -0.01104   0.00345   3.05545
    D4       -3.18656  -0.00494  -0.00751  -0.04573  -0.05324  -3.23980
    D5       -0.04267  -0.00555   0.00164  -0.00059   0.00105  -0.04162
    D6       -3.14359  -0.00589   0.00293   0.00283   0.00576  -3.13783
    D7        3.19919  -0.01250  -0.01875  -0.02251  -0.04125   3.15794
    D8        3.11892  -0.00191  -0.02427  -0.03494  -0.05921   3.05971
    D9       -3.13917   0.00054  -0.00054  -0.00175  -0.00229  -3.14145
   D10       -0.02412   0.00098  -0.01719   0.01378  -0.00342  -0.02753
   D11        3.11928   0.00096   0.00041   0.00074   0.00115   3.12043
   D12       -3.08928  -0.00249  -0.01693   0.01089  -0.00604  -3.09532
   D13        3.09232  -0.00218  -0.02673  -0.02944  -0.05617   3.03616
   D14        3.18499  -0.00087  -0.02334  -0.02240  -0.04575   3.13925
   D15        2.74358   0.00178  -0.01469  -0.03692  -0.05160   2.69198
   D16        3.06065   0.00229  -0.00738  -0.02241  -0.02980   3.03085
   D17        3.24726  -0.00005   0.00048   0.00144   0.00193   3.24918
         Item               Value     Threshold  Converged?
 Maximum Force            0.030767     0.000450     NO 
 RMS     Force            0.007996     0.000300     NO 
 Maximum Displacement     0.059210     0.001800     NO 
 RMS     Displacement     0.019658     0.001200     NO 
 Predicted change in Energy=-4.971860D-03
 GradGradGradGradGradGradGradGradGradGradGradGradGradGradGradGradGradGrad

 ---------------------------------------------------------------------------------------------------
                            Z-MATRIX (ANGSTROMS AND DEGREES)
   CD    Cent   Atom    N1       Length/X        N2       Alpha/Y        N3        Beta/Z          J
 ---------------------------------------------------------------------------------------------------
      1      1  H 
      2      2  N        1   1.006374(     1)
      3      3  C        2   1.356081(     2)      1  126.530(    17)
      4      4  C        2   1.383081(     3)      1  122.007(    18)      3 -185.627(    32)      0
      5      5  H        3   1.076794(     4)      2  121.597(    19)      1   -2.385(    33)      0
      6      6  C        3   1.380560(     5)      2  107.350(    20)      5 -179.785(    34)      0
      7      7  C        4   1.393504(     6)      2  105.786(    21)      1  180.937(    35)      0
      8      8  C        4   1.436150(     7)      2  116.914(    22)      7  175.308(    36)      0
      9      9  H        6   1.077017(     8)      3  125.433(    23)      2 -179.992(    37)      0
     10     10  H        8   1.086503(     9)      4  113.192(    24)      2   -1.578(    38)      0
     11     11  H        7   1.075439(    10)      4  126.459(    25)      2  178.787(    39)      0
     12     12  C        8   1.348881(    11)      4  134.322(    26)     10 -177.349(    40)      0
     13     13  H       12   1.083183(    12)      8  115.846(    27)      4  173.959(    41)      0
     14     14  C       12   1.460685(    13)      8  132.948(    28)     13  179.866(    42)      0
     15     15  H       14   1.087263(    14)     12  117.053(    29)      8  154.239(    43)      0
     16     16  C       14   1.315384(    15)     12  132.027(    30)     15  173.655(    44)      0
     17     17  O       16   1.165748(    16)     14  175.064(    31)     12  186.164(    45)      0
 ---------------------------------------------------------------------------------------------------
                         Z-Matrix orientation:                         
 ---------------------------------------------------------------------
 Center     Atomic      Atomic             Coordinates (Angstroms)
 Number     Number       Type             X           Y           Z
 ---------------------------------------------------------------------
      1          1           0        0.000000    0.000000    0.000000
      2          7           0        0.000000    0.000000    1.006374
      3          6           0        1.089670    0.000000    1.813575
      4          6           0       -1.167175    0.114996    1.739443
      5          1           0        2.088476   -0.038159    1.413057
      6          6           0        0.636656    0.049877    3.116739
      7          6           0       -0.777724    0.098650    3.077320
      8          6           0       -2.381578    0.318919    1.000412
      9          1           0        1.260483    0.062652    3.994601
     10          1           0       -2.223470    0.385757   -0.072445
     11          1           0       -1.424179    0.186972    3.932226
     12          6           0       -3.675090    0.491052    1.341993
     13          1           0       -4.351273    0.724372    0.528591
     14          6           0       -4.384906    0.425796    2.616945
     15          1           0       -5.302693    1.002482    2.702039
     16          6           0       -4.189949   -0.298789    3.697317
     17          8           0       -4.102803   -0.902719    4.690615
 ---------------------------------------------------------------------
                    Distance matrix (angstroms):
                    1          2          3          4          5
     1  H    0.000000
     2  N    1.006374   0.000000
     3  C    2.115759   1.356081   0.000000
     4  C    2.097900   1.383081   2.260989   0.000000
     5  H    2.521888   2.128046   1.076794   3.275554   0.000000
     6  C    3.181490   2.204872   1.380560   2.270460   2.240104
     7  C    3.175608   2.214363   2.256977   1.393504   3.317166
     8  C    2.602777   2.402844   3.579456   1.436150   4.503240
     9  H    4.189222   3.243801   2.188601   3.313910   2.712951
    10  H    2.257848   2.501295   3.831811   2.114713   4.580317
    11  H    4.186364   3.259426   3.292883   2.208965   4.328469
    12  C    3.943141   3.722910   4.813155   2.566909   5.788248
    13  H    4.442713   4.436955   5.637354   3.460633   6.544777
    14  C    5.124169   4.690698   5.549566   3.349686   6.600703
    15  H    6.035274   5.656749   6.531205   4.337825   7.574549
    16  C    5.595990   4.988599   5.613567   3.625141   6.686135
    17  O    6.296806   5.587623   6.004502   4.285215   7.058456
                    6          7          8          9         10
     6  C    0.000000
     7  C    1.415769   0.000000
     8  C    3.696073   2.633327   0.000000
     9  H    1.077017   2.235395   4.721806   0.000000
    10  H    4.296979   3.477589   1.086503   5.364996   0.000000
    11  H    2.220553   1.075439   3.086997   2.688263   4.088492
    12  C    4.683536   3.400010   1.348881   5.619585   2.029513
    13  H    5.659760   4.433712   2.065601   6.628944   2.236839
    14  C    5.060355   3.651127   2.576417   5.822390   3.450540
    15  H    6.029535   4.629589   3.449015   6.754945   4.190432
    16  C    4.873885   3.490793   3.305308   5.470487   4.306593
    17  O    5.083994   3.829049   4.251189   5.493744   5.280038
                   11         12         13         14         15
    11  H    0.000000
    12  C    3.445050   0.000000
    13  H    4.521217   1.083183   0.000000
    14  C    3.248523   1.460685   2.109858   0.000000
    15  H    4.149854   2.181829   2.388811   1.087263   0.000000
    16  C    2.817912   2.537021   3.333722   1.315384   1.980425
    17  O    2.989583   3.652233   4.475668   2.478839   3.003991
                   16         17
    16  C    0.000000
    17  O    1.165748   0.000000
 Symmetry turned off by external request.
 Stoichiometry    C8H7NO
 Framework group  C1[X(C8H7NO)]
 Deg. of freedom    45
 Full point group                 C1      NOp   1
 Rotational constants (GHZ):           2.6193809           0.8285403           0.6449205
 Standard basis: def2TZVP (5D, 7F)
 The following finite field(s) will be applied:
 An electric field of             -0.0082 -0.0014  0.0056
   352 basis functions,   566 primitive gaussians,   402 cartesian basis functions
    35 alpha electrons       35 beta electrons
       nuclear repulsion energy       451.7147219219 Hartrees.
 NAtoms=   17 NActive=   17 NUniq=   17 SFac= 1.00D+00 NAtFMM=   60 NAOKFM=F Big=F
 Integral buffers will be    131072 words long.
 Raffenetti 2 integral format.
 Two-electron integral symmetry is turned off.
 One-electron integrals computed using PRISM.
   1 Symmetry operations used in ECPInt.
 ECPInt:  NShTT=    9591 NPrTT=   29644 LenC2=    9134 LenP2D=   21855.
 LDataN:  DoStor=T MaxTD1= 6 Len=  172
 NBasis=   352 RedAO= T EigKep=  3.25D-05  NBF=   352
 NBsUse=   352 1.00D-06 EigRej= -1.00D+00 NBFU=   352
 The nuclear repulsion energy is now       455.5095752689 hartrees.
 Lowest energy guess from the checkpoint file:  "checkpoint.chk"
 B after Tr=     0.128004    0.175760    0.052579
         Rot=    0.998589   -0.022255    0.036366    0.031647 Ang=  -6.09 deg.
 B after Tr=     0.035421    0.604952    0.043665
         Rot=    0.997029   -0.074682    0.002548    0.018665 Ang=  -8.83 deg.
 Requested convergence on RMS density matrix=1.00D-08 within 128 cycles.
 Requested convergence on MAX density matrix=1.00D-06.
 Requested convergence on             energy=1.00D-06.
 No special actions if energy rises.
 Integral accuracy reduced to 1.0D-05 until final iterations.
 Initial convergence to 1.0D-05 achieved.  Increase integral accuracy.
 SCF Done:  E(RB3LYP) =  -439.165210601     A.U. after   14 cycles
            NFock= 14  Conv=0.38D-08     -V/T= 2.0050
   1 Symmetry operations used in ECPInt.
 ECPInt:  NShTT=    9591 NPrTT=   29644 LenC2=    9134 LenP2D=   21855.
 LDataN:  DoStor=T MaxTD1= 7 Len=  274
 Calling FoFJK, ICntrl=      2127 FMM=F ISym2X=0 I1Cent= 0 IOpClX= 0 NMat=1 NMatS=1 NMatT=0.
 -------------------------------------------------------------------
 Center     Atomic                   Forces (Hartrees/Bohr)
 Number     Number              X              Y              Z
 -------------------------------------------------------------------
      1        1           0.005366228    0.000462601   -0.000568298
      2        7          -0.001487065    0.005856683   -0.001499214
      3        6          -0.002665229   -0.003327031   -0.000873455
      4        6           0.000155264   -0.004219701   -0.001671040
      5        1           0.000228764   -0.000763047    0.000263686
      6        6          -0.004416211   -0.000741121    0.001396143
      7        6           0.003436061    0.004270800   -0.000012412
      8        6          -0.001829056   -0.001441082    0.001462272
      9        1           0.000062555   -0.000384908   -0.000048275
     10        1           0.001593401    0.000531364    0.000259772
     11        1          -0.001643903   -0.000118546    0.000784278
     12        6          -0.002547824   -0.001126625   -0.000894536
     13        1           0.000716689    0.000017292   -0.001103889
     14        6           0.001558745   -0.001034126    0.003561826
     15        1          -0.000420793    0.000656485    0.000008895
     16        6           0.000298626    0.004485123   -0.005930460
     17        8           0.001593749   -0.003124160    0.004864708
 -------------------------------------------------------------------
 Cartesian Forces:  Max     0.005930460 RMS     0.002395940
 -----------------------------------------------------------------------------------------------
                       Internal Coordinate Forces (Hartree/Bohr or radian)
  Cent   Atom   N1       Length/X         N2         Alpha/Y        N3         Beta/Z          J
 -----------------------------------------------------------------------------------------------
      1  H 
      2  N        1   0.000568(     1)
      3  C        2  -0.005017(     2)      1   0.021955(    17)
      4  C        2  -0.001844(     3)      1   0.024957(    18)      3   0.009646(    32)     0
      5  H        3   0.000141(     4)      2   0.000637(    19)      1   0.002063(    33)     0
      6  C        3   0.002660(     5)      2  -0.009348(    20)      5   0.003390(    34)     0
      7  C        4   0.001193(     6)      2  -0.001295(    21)      1   0.017299(    35)     0
      8  C        4  -0.002109(     7)      2   0.016620(    22)      7   0.006632(    36)     0
      9  H        6  -0.000008(     8)      3  -0.000189(    23)      2  -0.000633(    37)     0
     10  H        8   0.000008(     9)      4  -0.003147(    24)      2   0.003132(    38)     0
     11  H        7   0.001602(    10)      4  -0.001660(    25)      2   0.000512(    39)     0
     12  C        8  -0.001038(    11)      4  -0.015900(    26)     10   0.004519(    40)     0
     13  H       12   0.000385(    12)      8  -0.002576(    27)      4   0.006539(    41)     0
     14  C       12   0.000670(    13)      8  -0.016399(    28)     13   0.006504(    42)     0
     15  H       14   0.000704(    14)     12  -0.000317(    29)      8   0.003495(    43)     0
     16  C       14  -0.001345(    15)     12  -0.005608(    30)     15   0.004039(    44)     0
     17  O       16   0.005883(    16)     14   0.002351(    31)     12  -0.000089(    45)     0
 -----------------------------------------------------------------------------------------------
 Internal  Forces:  Max     0.024957266 RMS     0.007786353

 GradGradGradGradGradGradGradGradGradGradGradGradGradGradGradGradGradGrad
 Berny optimization.
 Search for a local minimum.
 Step number   3 out of a maximum of   55
 All quantities printed in internal units (Hartrees-Bohrs-Radians)
 Update second derivatives using D2CorN and points    3    2    1
 ITU=  0  0  0
 Energy rises -- skip Quadratic search.
 Quartic linear search produced a step of -0.90400.
 Variable       Old X    -DE/DX   Delta X   Delta X   Delta X     New X
                                 (Linear)    (Quad)   (Total)
    R2        1.90177   0.00056  -0.00000   0.00000  -0.00000   1.90177
    R3        2.56229  -0.00615   0.00191   0.00000   0.00191   2.56420
    R4        2.61265  -0.00234   0.00276   0.00000   0.00276   2.61541
    R5        2.03485   0.00010   0.00000   0.00000   0.00000   2.03485
    R6        2.60951   0.00305  -0.00149   0.00000  -0.00149   2.60802
    R7        2.63333   0.00149  -0.00028   0.00000  -0.00028   2.63305
    R8        2.71382  -0.00230   0.00018   0.00000   0.00018   2.71400
    R9        2.03525  -0.00001   0.00002   0.00000   0.00002   2.03527
   R10        2.05323   0.00001  -0.00007   0.00000  -0.00007   2.05316
   R11        2.03216   0.00135   0.00002   0.00000   0.00002   2.03218
   R12        2.54943  -0.00055  -0.00011   0.00000  -0.00011   2.54932
   R13        2.04703  -0.00003  -0.00007   0.00000  -0.00007   2.04697
   R14        2.76027  -0.00008   0.00031   0.00000   0.00031   2.76058
   R15        2.05402   0.00077   0.00028   0.00000   0.00028   2.05430
   R16        2.48492  -0.00005   0.00062   0.00000   0.00062   2.48554
   R17        2.20281   0.00655  -0.00003   0.00000  -0.00003   2.20278
    A3        2.21459   0.02525  -0.01674   0.00000  -0.01674   2.19785
    A4        2.12262   0.03077   0.02611   0.00000   0.02611   2.14873
    A5        2.12254   0.00078  -0.00059   0.00000  -0.00059   2.12195
    A6        1.87195  -0.01073   0.00654   0.00000   0.00654   1.87849
    A7        1.84589  -0.00452   0.00249   0.00000   0.00249   1.84838
    A8        2.03287   0.01732   0.03194   0.00000   0.03194   2.06481
    A9        2.18919  -0.00017   0.00006   0.00000   0.00006   2.18926
   A10        1.97253  -0.00342   0.00492   0.00000   0.00492   1.97746
   A11        2.20706  -0.00044   0.00027   0.00000   0.00027   2.20733
   A12        2.35376  -0.01556  -0.03378   0.00000  -0.03378   2.31998
   A13        2.01923  -0.00238   0.00594   0.00000   0.00594   2.02517
   A14        2.32500  -0.01370  -0.02786   0.00000  -0.02786   2.29714
   A15        2.04029  -0.00140   0.00803   0.00000   0.00803   2.04831
   A16        2.31703  -0.00513  -0.02747   0.00000  -0.02747   2.28956
   A17        3.05200   0.00164   0.01449   0.00000   0.01449   3.06649
    D4       -3.18656  -0.00494  -0.00751   0.00000  -0.00751  -3.19407
    D5       -0.04267  -0.00555   0.00164   0.00000   0.00164  -0.04103
    D6       -3.14359  -0.00589   0.00293   0.00000   0.00293  -3.14067
    D7        3.19919  -0.01250  -0.01875   0.00000  -0.01875   3.18045
    D8        3.11892  -0.00191  -0.02427   0.00000  -0.02427   3.09465
    D9       -3.13917   0.00054  -0.00054   0.00000  -0.00054  -3.13971
   D10       -0.02412   0.00098  -0.01719   0.00000  -0.01719  -0.04131
   D11        3.11928   0.00096   0.00041   0.00000   0.00041   3.11968
   D12       -3.08928  -0.00249  -0.01693   0.00000  -0.01693  -3.10622
   D13        3.09232  -0.00218  -0.02673   0.00000  -0.02673   3.06559
   D14        3.18499  -0.00087  -0.02334   0.00000  -0.02334   3.16165
   D15        2.74358   0.00178  -0.01469   0.00000  -0.01469   2.72890
   D16        3.06065   0.00229  -0.00738   0.00000  -0.00738   3.05327
   D17        3.24726  -0.00005   0.00048   0.00000   0.00048   3.24774
         Item               Value     Threshold  Converged?
 Maximum Force            0.024957     0.000450     NO 
 RMS     Force            0.007786     0.000300     NO 
 Maximum Displacement     0.033779     0.001800     NO 
 RMS     Displacement     0.013476     0.001200     NO 
 Predicted change in Energy=-1.375189D-05
 GradGradGradGradGradGradGradGradGradGradGradGradGradGradGradGradGradGrad

 ---------------------------------------------------------------------------------------------------
                            Z-MATRIX (ANGSTROMS AND DEGREES)
   CD    Cent   Atom    N1       Length/X        N2       Alpha/Y        N3        Beta/Z          J
 ---------------------------------------------------------------------------------------------------
      1      1  H 
      2      2  N        1   1.006371(     1)
      3      3  C        2   1.356917(     2)      1  125.928(    17)
      4      4  C        2   1.384013(     3)      1  123.113(    18)      3 -183.007(    32)      0
      5      5  H        3   1.076799(     4)      2  121.579(    19)      1   -2.351(    33)      0
      6      6  C        3   1.380103(     5)      2  107.630(    20)      5 -179.947(    34)      0
      7      7  C        4   1.393349(     6)      2  105.904(    21)      1  182.226(    35)      0
      8      8  C        4   1.436186(     7)      2  118.305(    22)      7  177.311(    36)      0
      9      9  H        6   1.077017(     8)      3  125.435(    23)      2 -179.892(    37)      0
     10     10  H        8   1.086483(     9)      4  113.300(    24)      2   -2.367(    38)      0
     11     11  H        7   1.075385(    10)      4  126.470(    25)      2  178.745(    39)      0
     12     12  C        8   1.349042(    11)      4  132.925(    26)     10 -177.973(    40)      0
     13     13  H       12   1.083208(    12)      8  116.034(    27)      4  175.646(    41)      0
     14     14  C       12   1.460834(    13)      8  131.616(    28)     13  181.149(    42)      0
     15     15  H       14   1.087089(    14)     12  117.360(    29)      8  156.354(    43)      0
     16     16  C       14   1.315290(    15)     12  131.182(    30)     15  174.939(    44)      0
     17     17  O       16   1.165660(    16)     14  175.697(    31)     12  186.082(    45)      0
 ---------------------------------------------------------------------------------------------------
                         Z-Matrix orientation:                         
 ---------------------------------------------------------------------
 Center     Atomic      Atomic             Coordinates (Angstroms)
 Number     Number       Type             X           Y           Z
 ---------------------------------------------------------------------
      1          1           0        0.000000    0.000000    0.000000
      2          7           0        0.000000    0.000000    1.006371
      3          6           0        1.098775    0.000000    1.802560
      4          6           0       -1.157644    0.060803    1.762452
      5          1           0        2.093201   -0.037626    1.391224
      6          6           0        0.666100    0.052731    3.112025
      7          6           0       -0.743797    0.091192    3.092575
      8          6           0       -2.416512    0.137158    1.075393
      9          1           0        1.303398    0.067588    3.980124
     10          1           0       -2.314317    0.179950   -0.005426
     11          1           0       -1.378467    0.158182    3.958114
     12          6           0       -3.694307    0.201156    1.503247
     13          1           0       -4.447399    0.325138    0.734599
     14          6           0       -4.271883    0.155155    2.844264
     15          1           0       -5.251573    0.605708    2.982002
     16          6           0       -3.853274   -0.424750    3.948104
     17          8           0       -3.557896   -0.915008    4.963565
 ---------------------------------------------------------------------
                    Distance matrix (angstroms):
                    1          2          3          4          5
     1  H    0.000000
     2  N    1.006371   0.000000
     3  C    2.111050   1.356917   0.000000
     4  C    2.109519   1.384013   2.257595   0.000000
     5  H    2.513644   2.128618   1.076799   3.273452   0.000000
     6  C    3.182949   2.209128   1.380103   2.268800   2.237395
     7  C    3.182070   2.216708   2.251117   1.393349   3.310550
     8  C    2.648549   2.421385   3.592330   1.436186   4.524136
     9  H    4.188651   3.247556   2.188201   3.312830   2.708738
    10  H    2.321309   2.532229   3.866575   2.116006   4.628627
    11  H    4.194265   3.261591   3.287578   2.208886   4.322007
    12  C    3.993509   3.732995   4.806630   2.553731   5.793514
    13  H    4.519370   4.467542   5.657412   3.456710   6.583479
    14  C    5.134481   4.653053   5.472951   3.298137   6.531675
    15  H    6.069451   5.643493   6.487287   4.306330   7.542556
    16  C    5.533142   4.866408   5.413554   3.504178   6.484448
    17  O    6.175180   5.399560   5.702086   4.118319   6.742872
                    6          7          8          9         10
     6  C    0.000000
     7  C    1.410555   0.000000
     8  C    3.695605   2.620900   0.000000
     9  H    1.077017   2.231436   4.720173   0.000000
    10  H    4.314809   3.474482   1.086483   5.383781   0.000000
    11  H    2.215230   1.075385   3.063994   2.683485   4.072584
    12  C    4.650090   3.353143   1.349042   5.579410   2.044729
    13  H    5.645726   4.396755   2.067844   6.608436   2.262466
    14  C    4.946298   3.537392   2.563519   5.690484   3.457371
    15  H    5.944875   4.538392   3.448516   6.652328   4.211112
    16  C    4.620797   3.266034   3.260751   5.180221   4.285377
    17  O    4.712416   3.525932   4.186609   5.056167   5.237967
                   11         12         13         14         15
    11  H    0.000000
    12  C    3.375105   0.000000
    13  H    4.453904   1.083208   0.000000
    14  C    3.100407   1.460834   2.123766   0.000000
    15  H    4.019206   2.185282   2.403380   1.087089   0.000000
    16  C    2.542554   2.528707   3.352899   1.315290   1.987570
    17  O    2.629178   3.638439   4.495924   2.479207   3.017899
                   16         17
    16  C    0.000000
    17  O    1.165660   0.000000
 Symmetry turned off by external request.
 Stoichiometry    C8H7NO
 Framework group  C1[X(C8H7NO)]
 Deg. of freedom    45
 Full point group                 C1      NOp   1
 Rotational constants (GHZ):           2.5320653           0.8966319           0.6740401
 Standard basis: def2TZVP (5D, 7F)
 The following finite field(s) will be applied:
 An electric field of             -0.0082 -0.0014  0.0056
   352 basis functions,   566 primitive gaussians,   402 cartesian basis functions
    35 alpha electrons       35 beta electrons
       nuclear repulsion energy       455.6476863944 Hartrees.
 NAtoms=   17 NActive=   17 NUniq=   17 SFac= 1.00D+00 NAtFMM=   60 NAOKFM=F Big=F
 Integral buffers will be    131072 words long.
 Raffenetti 2 integral format.
 Two-electron integral symmetry is turned off.
 One-electron integrals computed using PRISM.
   1 Symmetry operations used in ECPInt.
 ECPInt:  NShTT=    9591 NPrTT=   29644 LenC2=    9170 LenP2D=   21979.
 LDataN:  DoStor=T MaxTD1= 6 Len=  172
 NBasis=   352 RedAO= T EigKep=  3.03D-05  NBF=   352
 NBsUse=   352 1.00D-06 EigRej= -1.00D+00 NBFU=   352
 The nuclear repulsion energy is now       459.4237419549 hartrees.
 Lowest energy guess from the checkpoint file:  "checkpoint.chk"
 B after Tr=     0.010277   -0.041254    0.004927
         Rot=    0.999981    0.005133    0.003283    0.000884 Ang=   0.71 deg.
 B after Tr=    -0.109809   -0.227574   -0.029599
         Rot=    0.998606    0.027444   -0.033294   -0.030406 Ang=   6.05 deg.
 Requested convergence on RMS density matrix=1.00D-08 within 128 cycles.
 Requested convergence on MAX density matrix=1.00D-06.
 Requested convergence on             energy=1.00D-06.
 No special actions if energy rises.
 Integral accuracy reduced to 1.0D-05 until final iterations.
 Initial convergence to 1.0D-05 achieved.  Increase integral accuracy.
 SCF Done:  E(RB3LYP) =  -439.166739726     A.U. after   12 cycles
            NFock= 12  Conv=0.90D-08     -V/T= 2.0050
   1 Symmetry operations used in ECPInt.
 ECPInt:  NShTT=    9591 NPrTT=   29644 LenC2=    9170 LenP2D=   21979.
 LDataN:  DoStor=T MaxTD1= 7 Len=  274
 Calling FoFJK, ICntrl=      2127 FMM=F ISym2X=0 I1Cent= 0 IOpClX= 0 NMat=1 NMatS=1 NMatT=0.
 -------------------------------------------------------------------
 Center     Atomic                   Forces (Hartrees/Bohr)
 Number     Number              X              Y              Z
 -------------------------------------------------------------------
      1        1           0.003599666   -0.000353149   -0.000498863
      2        7          -0.001814375    0.000729605    0.000764007
      3        6          -0.001337280   -0.000539033   -0.001608877
      4        6          -0.001019791    0.000153548   -0.001664927
      5        1           0.000197474    0.000080438   -0.000045014
      6        6          -0.001530764    0.000172938    0.001044817
      7        6           0.001095280   -0.000434880    0.000677824
      8        6           0.001804988    0.000248868    0.000917275
      9        1           0.000129265    0.000082961   -0.000140159
     10        1           0.000127599   -0.000181067    0.000085927
     11        1          -0.000148922    0.000032668    0.000221438
     12        6          -0.001167471    0.000337697   -0.000789310
     13        1           0.000015248    0.000073445   -0.000059958
     14        6           0.000475063   -0.000869498    0.000979786
     15        1          -0.000098499    0.000340690    0.000045997
     16        6          -0.000953248    0.001564533   -0.003602132
     17        8           0.000625766   -0.001439764    0.003672170
 -------------------------------------------------------------------
 Cartesian Forces:  Max     0.003672170 RMS     0.001191438
 -----------------------------------------------------------------------------------------------
                       Internal Coordinate Forces (Hartree/Bohr or radian)
  Cent   Atom   N1       Length/X         N2         Alpha/Y        N3         Beta/Z          J
 -----------------------------------------------------------------------------------------------
      1  H 
      2  N        1   0.000499(     1)
      3  C        2  -0.002497(     2)      1   0.004684(    17)
      4  C        2  -0.000376(     3)      1   0.004904(    18)      3  -0.001017(    32)     0
      5  H        3   0.000197(     4)      2   0.000073(    19)      1  -0.000387(    33)     0
      6  C        3   0.001308(     5)      2  -0.002363(    20)      5  -0.000537(    34)     0
      7  C        4   0.001131(     6)      2  -0.001741(    21)      1  -0.001409(    35)     0
      8  C        4  -0.001321(     7)      2   0.000996(    22)      7  -0.000404(    36)     0
      9  H        6  -0.000035(     8)      3  -0.000374(    23)      2   0.000150(    37)     0
     10  H        8  -0.000081(     9)      4  -0.000292(    24)      2   0.000552(    38)     0
     11  H        7   0.000268(    10)      4   0.000021(    25)      2  -0.000026(    39)     0
     12  C        8   0.001123(    11)      4   0.000616(    26)     10   0.000227(    40)     0
     13  H       12   0.000040(    12)      8  -0.000109(    27)      4  -0.000231(    41)     0
     14  C       12   0.000999(    13)      8   0.000252(    28)     13  -0.000104(    42)     0
     15  H       14   0.000236(    14)     12  -0.000088(    29)      8  -0.000493(    43)     0
     16  C       14  -0.000100(    15)     12   0.001925(    30)     15  -0.000008(    44)     0
     17  O       16   0.003963(    16)     14  -0.001062(    31)     12  -0.000017(    45)     0
 -----------------------------------------------------------------------------------------------
 Internal  Forces:  Max     0.004904260 RMS     0.001452566

 GradGradGradGradGradGradGradGradGradGradGradGradGradGradGradGradGradGrad
 Berny optimization.
 Search for a local minimum.
 Step number   4 out of a maximum of   55
 All quantities printed in internal units (Hartrees-Bohrs-Radians)
 Update second derivatives using D2CorN and points    3    1    4
 ITU=  0  0  0  0
     Eigenvalues ---   -0.43988   0.00418   0.01414   0.03239   0.03803
     Eigenvalues ---    0.04902   0.05945   0.06335   0.08316   0.09779
     Eigenvalues ---    0.10812   0.12701   0.16077   0.17569   0.18321
     Eigenvalues ---    0.18741   0.23270   0.24322   0.25394   0.28479
     Eigenvalues ---    0.30239   0.33341   0.35160   0.35227   0.35615
     Eigenvalues ---    0.36358   0.36384   0.36586   0.36886   0.40118
     Eigenvalues ---    0.43121   0.46585   0.47738   0.48271   0.49054
     Eigenvalues ---    0.51330   0.53543   0.55189   0.56414   0.63140
     Eigenvalues ---    0.67531   1.18462   1.24281   1.84765  21.14880
 RFO step:  Lambda=-4.39880126D-01 EMin=-4.39879323D-01
 I=     1 Eig=   -4.40D-01 Dot1=  1.48D-04
 I=     1 Stepn=  2.50D-01 RXN=   2.50D-01 EDone=F
 Mixed    1 eigenvectors in step.  Raw Step.Grad=  1.48D-04.
 RFO eigenvector is Hessian eigenvector with negative curvature.
 Taking step of  2.50D-01 in eigenvector direction(s).  Step.Grad=  1.73D-04.
 Quartic linear search produced a step of  0.00606.
 Maximum step size (   0.100) exceeded in Quadratic search.
    -- Step size scaled by   0.400
 Variable       Old X    -DE/DX   Delta X   Delta X   Delta X     New X
                                 (Linear)    (Quad)   (Total)
    R2        1.90177   0.00050   0.00000   0.00002   0.00002   1.90178
    R3        2.56420  -0.00250  -0.00000   0.00045   0.00045   2.56465
    R4        2.61541  -0.00038  -0.00000   0.00156   0.00155   2.61696
    R5        2.03485   0.00020  -0.00000  -0.00003  -0.00003   2.03483
    R6        2.60802   0.00131   0.00000  -0.00078  -0.00078   2.60724
    R7        2.63305   0.00113   0.00000   0.00002   0.00002   2.63307
    R8        2.71400  -0.00132  -0.00000  -0.00017  -0.00017   2.71383
    R9        2.03527  -0.00004  -0.00000   0.00003   0.00003   2.03530
   R10        2.05316  -0.00008   0.00000  -0.00005  -0.00005   2.05311
   R11        2.03218   0.00027  -0.00000   0.00037   0.00037   2.03255
   R12        2.54932   0.00112   0.00000  -0.00087  -0.00087   2.54845
   R13        2.04697   0.00004   0.00000  -0.00007  -0.00007   2.04690
   R14        2.76058   0.00100  -0.00000  -0.00052  -0.00052   2.76005
   R15        2.05430   0.00024  -0.00000   0.00062   0.00062   2.05492
   R16        2.48554  -0.00010  -0.00000  -0.00039  -0.00039   2.48514
   R17        2.20278   0.00396   0.00000   0.00030   0.00030   2.20308
    A3        2.19785   0.00468   0.00001  -0.00903  -0.00902   2.18884
    A4        2.14873   0.00490  -0.00002   0.01104   0.01102   2.15975
    A5        2.12195   0.00007   0.00000  -0.00040  -0.00040   2.12155
    A6        1.87849  -0.00236  -0.00000   0.00274   0.00274   1.88123
    A7        1.84838  -0.00174  -0.00000   0.00081   0.00081   1.84919
    A8        2.06481   0.00100  -0.00002   0.01101   0.01099   2.07580
    A9        2.18926  -0.00037  -0.00000   0.00008   0.00008   2.18934
   A10        1.97746  -0.00029  -0.00000   0.00448   0.00448   1.98194
   A11        2.20733   0.00002  -0.00000   0.00025   0.00025   2.20757
   A12        2.31998   0.00062   0.00002  -0.01487  -0.01484   2.30514
   A13        2.02517  -0.00011  -0.00000   0.00410   0.00409   2.02926
   A14        2.29714   0.00025   0.00002  -0.00865  -0.00863   2.28851
   A15        2.04831  -0.00009  -0.00001  -0.00082  -0.00082   2.04749
   A16        2.28956   0.00193   0.00002   0.00524   0.00526   2.29482
   A17        3.06649  -0.00106  -0.00001  -0.00351  -0.00352   3.06297
    D4       -3.19407  -0.00102   0.00000  -0.04081  -0.04081  -3.23488
    D5       -0.04103  -0.00039  -0.00000  -0.01062  -0.01062  -0.05165
    D6       -3.14067  -0.00054  -0.00000  -0.00416  -0.00416  -3.14483
    D7        3.18045  -0.00141   0.00001   0.02398   0.02399   3.20444
    D8        3.09465  -0.00040   0.00002   0.00846   0.00847   3.10312
    D9       -3.13971   0.00015   0.00000  -0.00283  -0.00283  -3.14254
   D10       -0.04131   0.00055   0.00001   0.05735   0.05736   0.01605
   D11        3.11968  -0.00003  -0.00000  -0.00003  -0.00003   3.11966
   D12       -3.10622   0.00023   0.00001   0.04558   0.04559  -3.06063
   D13        3.06559  -0.00023   0.00002   0.01801   0.01803   3.08362
   D14        3.16165  -0.00010   0.00002   0.02615   0.02617   3.18782
   D15        2.72890  -0.00049   0.00001  -0.00123  -0.00122   2.72768
   D16        3.05327  -0.00001   0.00000   0.02139   0.02140   3.07466
   D17        3.24774  -0.00002  -0.00000  -0.00205  -0.00205   3.24569
         Item               Value     Threshold  Converged?
 Maximum Force            0.004904     0.000450     NO 
 RMS     Force            0.001453     0.000300     NO 
 Maximum Displacement     0.057364     0.001800     NO 
 RMS     Displacement     0.014909     0.001200     NO 
 Predicted change in Energy=-2.258889D-03
 GradGradGradGradGradGradGradGradGradGradGradGradGradGradGradGradGradGrad

 ---------------------------------------------------------------------------------------------------
                            Z-MATRIX (ANGSTROMS AND DEGREES)
   CD    Cent   Atom    N1       Length/X        N2       Alpha/Y        N3        Beta/Z          J
 ---------------------------------------------------------------------------------------------------
      1      1  H 
      2      2  N        1   1.006381(     1)
      3      3  C        2   1.357153(     2)      1  125.411(    17)
      4      4  C        2   1.384835(     3)      1  123.745(    18)      3 -185.345(    32)      0
      5      5  H        3   1.076785(     4)      2  121.556(    19)      1   -2.959(    33)      0
      6      6  C        3   1.379693(     5)      2  107.786(    20)      5 -180.185(    34)      0
      7      7  C        4   1.393362(     6)      2  105.951(    21)      1  183.601(    35)      0
      8      8  C        4   1.436096(     7)      2  118.934(    22)      7  177.796(    36)      0
      9      9  H        6   1.077032(     8)      3  125.440(    23)      2 -180.054(    37)      0
     10     10  H        8   1.086458(     9)      4  113.557(    24)      2    0.920(    38)      0
     11     11  H        7   1.075580(    10)      4  126.485(    25)      2  178.743(    39)      0
     12     12  C        8   1.348581(    11)      4  132.075(    26)     10 -175.361(    40)      0
     13     13  H       12   1.083171(    12)      8  116.268(    27)      4  176.679(    41)      0
     14     14  C       12   1.460557(    13)      8  131.122(    28)     13  182.648(    42)      0
     15     15  H       14   1.087415(    14)     12  117.312(    29)      8  156.285(    43)      0
     16     16  C       14   1.315081(    15)     12  131.484(    30)     15  176.165(    44)      0
     17     17  O       16   1.165819(    16)     14  175.495(    31)     12  185.964(    45)      0
 ---------------------------------------------------------------------------------------------------
                         Z-Matrix orientation:                         
 ---------------------------------------------------------------------
 Center     Atomic      Atomic             Coordinates (Angstroms)
 Number     Number       Type             X           Y           Z
[...]

 ----------------------------------------------------------------------
 1\1\GINC-BHC0105\Freq\RB3LYP\def2TZVP\C8H7N1O1\DHANAWAY\11-Jun-2022\1\
 \#N Geom=AllCheck Guess=TCheck SCRF=Check GenChk RB3LYP/def2TZVP Freq\
 \int_zmat_initalOpt\\0,1\H\N,1,R2\C,2,R3,1,A3\C,2,R4,1,A4,3,D4,0\H,3,R
 5,2,A5,1,D5,0\C,3,R6,2,A6,5,D6,0\C,4,R7,2,A7,1,D7,0\C,4,R8,2,A8,7,D8,0
 \H,6,R9,3,A9,2,D9,0\H,8,R10,4,A10,2,D10,0\H,7,R11,4,A11,2,D11,0\C,8,R1
 2,4,A12,10,D12,0\H,12,R13,8,A13,4,D13,0\C,12,R14,8,A14,13,D14,0\H,14,R
 15,12,A15,8,D15,0\C,14,R16,12,A16,15,D16,0\O,16,R17,14,A17,12,D17,0\\R
 2=1.00699098\R3=1.35452816\R4=1.38499768\R5=1.07711829\R6=1.38188566\R
 7=1.39471283\R8=1.43372583\R9=1.07698068\R10=1.08662199\R11=1.07581149
 \R12=1.35009846\R13=1.08331719\R14=1.46338551\R15=1.08805597\R16=1.313
 84815\R17=1.16826745\A3=125.90444291\A4=123.15056611\A5=121.62320909\A
 6=107.69365853\A7=105.88301623\A8=118.4603489\A9=125.27604461\A10=113.
 21470948\A11=126.40793175\A12=133.06443108\A13=116.15248739\A14=131.25
 539033\A15=117.35275023\A16=131.24893137\A17=175.69638284\D4=-183.4446
 1452\D5=-2.44292356\D6=-180.02901482\D7=182.28913751\D8=177.11801786\D
 9=-179.96239311\D10=0.87013958\D11=179.22310411\D12=-177.67213249\D13=
 175.18656274\D14=182.0554806\D15=150.77533129\D16=175.84193373\D17=185
 .72233121\\Version=ES64L-G16RevA.03\HF=-439.1668133\RMSD=3.764e-09\RMS
 F=7.074e-04\ZeroPoint=0.1298664\Thermal=0.1389123\Dipole=1.41746,0.375
 4926,-1.7793203\DipoleDeriv=0.1991157,0.0041898,-0.063484,-0.0044669,0
 .2916513,0.01542,-0.0651507,0.0014818,0.2718427,0.4738638,-0.0109454,-
 0.0874712,-0.0036635,-0.1942601,-0.0451345,0.0944618,-0.033307,-0.5979
 761,-0.4189904,0.0124347,0.1735293,-0.0027609,-0.0744359,0.0159227,-0.
 6090388,0.026541,0.367379,-0.7393268,0.0059506,-0.1697587,-0.0021977,-
 0.0128446,-0.0008423,-0.7037261,0.0231198,0.1756462,0.1128483,0.003586
 4,0.0036156,0.0057777,0.1810211,-0.0032549,0.0080182,-0.0044988,0.0848
 954,-0.562227,0.0053211,0.0751018,0.0234928,-0.2200281,-0.0006097,0.45
 60869,-0.0014841,-0.0766688,0.4982017,-0.0177545,0.0249215,-0.0134585,
 -0.1729818,0.0236416,0.3061086,0.0080706,-0.1245456,1.206623,-0.034719
 6,0.0630673,-0.0273647,-0.0874692,0.0020594,0.4190759,0.014424,-0.0051
 251,0.030199,0.0010376,-0.0535068,0.0032896,0.1667122,0.0002994,-0.061
 5965,-0.0028866,0.0120978,0.03271,0.0041769,0.0507244,-0.0010852,0.126
 5907,-0.0120116,-0.0045952,-0.0023511,-0.0682289,0.0249414,0.0081263,0
 .0900482,0.0161913,0.1416897,-0.0139883,0.0699352,-0.0069346,-0.007389
 9,-0.6081259,-0.0010362,-0.0599556,0.0838942,-0.2346897,-0.0311473,-0.
 1431092,-0.0384421,0.3593081,-0.0757351,0.0294046,-0.0495268,0.0057635
 ,0.1461212,0.01899,-0.0438323,0.0213313,-0.0708961,-0.0945554,-0.00886
 79,-0.3075554,-0.1325555,-0.2737844,0.2409621,-0.0338007,0.1496443,-0.
 5554682,0.0153722,0.0770518,0.0665329,0.1309879,0.1210523,-0.0202278,0
 .0750395,0.0163501,0.0344295,-0.0522906,-0.2202666,0.5281146,0.0826269
 ,0.5389223,-0.8367702,-0.3277374,-0.7295903,1.8109549,-0.042624,0.1423
 106,-0.2843972,-0.1644711,-0.4432669,0.6466914,0.563861,0.5585317,-1.6
 102548\Polar=162.1325549,-3.9759076,61.0528329,-6.3836002,-7.7048631,1
 12.4423092\PG=C01 [X(C8H7N1O1)]\NImag=0\\0.06255506,-0.00154528,0.0121
 5373,-0.00068026,0.00082243,0.46854856,-0.07408835,0.00249681,0.002056
 79,0.63227483,0.00210248,-0.00553415,-0.00100028,-0.01805187,0.0889148
 0,0.00069367,0.00154565,-0.45209940,0.03366037,0.01079080,0.95451246,0
 .01151325,-0.00073553,0.00372273,-0.26714795,0.00311157,-0.10253126,0.
 81877504,-0.00038551,-0.00566151,-0.00005342,0.00062047,-0.05642849,-0
 .00083485,-0.02237952,0.12690140,-0.02636574,-0.00069875,-0.01029333,-
 0.09264623,0.00145543,-0.18731177,-0.11341529,0.02017756,0.65397650,0.
 00853991,-0.00052311,-0.00404357,-0.20602612,0.00706403,0.07647865,-0.
 09106648,0.00308023,-0.02986319,0.69386786,-0.00063127,-0.00583571,0.0
 0024664,0.01186573,-0.05947640,-0.00525265,0.00228139,0.01342401,-0.00
 092234,-0.02945653,0.14004130,0.02588012,-0.00186281,-0.01051848,0.082
 80197,-0.00332680,-0.16418143,0.00530531,-0.00159487,-0.01106080,0.096
 35569,0.00634564,0.65191653,0.00022927,-0.00004938,-0.00006015,-0.0187
 0702,0.00087809,0.01084565,-0.31169393,0.01059491,0.10446144,0.0004919
 3,-0.00000789,-0.00371983,0.32770956,-0.00006192,-0.00224054,-0.000014
 45,-0.00061328,-0.00124824,0.00009404,0.01105025,-0.02873974,-0.005214
 55,0.00010089,0.00306761,-0.00038041,-0.01154661,0.02224356,0.00073097
 ,0.00007631,0.00071714,-0.02447753,0.00111429,0.01336035,0.11415492,-0
 .00566740,-0.10885572,-0.00266577,-0.00017498,-0.00409072,-0.11160475,
 0.00554900,0.10000796,-0.00559467,-0.00041158,-0.00361754,0.00699382,0
 .00178298,-0.00217021,-0.13324601,0.00329462,0.05703975,-0.04700299,-0
 .00124955,-0.07211890,0.00201199,0.00076105,0.02268926,0.63610787,0.00
 007029,0.00282368,0.00017303,-0.00124149,0.01370799,-0.00351761,0.0046
 3959,-0.06596207,-0.01105293,0.00171745,0.01086923,0.00288037,0.000042
 54,0.00255849,-0.00060131,-0.01025089,0.11797865,-0.00415530,0.0003140
 9,0.00108737,-0.05160308,-0.00279446,-0.08719413,0.08582663,-0.0111922
 9,-0.32709483,-0.00986347,0.00038459,0.00064489,-0.00072581,0.00004119
 ,0.00256019,0.12615679,0.02025051,0.77680332,-0.00589076,0.00076172,0.
 00300573,-0.02124188,-0.00026141,0.00422995,-0.03221590,0.00430875,0.0
 7929706,-0.10395069,0.00122849,-0.04671549,0.00080023,0.00030943,0.001
 67856,-0.29656658,0.00563723,-0.02324220,0.63673967,0.00041912,0.00096
 756,-0.00010565,0.00128839,0.01361890,-0.00373629,0.00252991,0.0111769
 9,-0.00217557,0.00047844,-0.06654663,-0.00785064,0.00007322,0.00428477
 ,-0.00039318,0.00816622,-0.05806411,-0.00205980,-0.02419943,0.11784222
 ,0.00397062,0.00014565,0.00076475,0.03601521,-0.00530104,-0.08097628,0
 .02317308,-0.00056038,0.00053893,-0.04992361,-0.00505870,-0.30213986,0
 .00009824,-0.00025117,-0.00528736,0.01018387,-0.00307636,-0.11218646,-
 0.12612647,0.02898114,0.74916468,0.00222195,-0.00026722,-0.00032176,-0
 .05941381,0.00332626,-0.01519284,0.00549804,0.00042168,0.01997430,-0.2
 1572249,0.01036298,-0.04712622,-0.00114092,0.00018255,-0.00085032,0.01
 496254,-0.00136132,-0.00911313,-0.01568558,0.00082408,-0.02441841,0.76
 985138,-0.00017019,-0.00211870,0.00005936,0.00319631,-0.00370144,0.000
 90053,0.00012149,0.00214220,-0.00095507,0.01254031,-0.05115326,0.00300
 772,0.00006789,0.00244481,-0.00002734,-0.00074407,0.00338283,0.0000233
 3,-0.00023332,0.00063573,0.00148976,-0.06009259,0.13195866,0.00239305,
 -0.00015270,0.00187537,0.01441648,-0.00078091,0.01318935,0.00794823,-0
 .00008066,0.00020215,-0.09069328,0.00455923,-0.15077212,0.00048049,0.0
 0012241,0.00104608,0.00346914,-0.00081718,-0.00947878,-0.03235275,0.00
 189874,-0.00748405,-0.05841609,0.00975561,0.62583681,0.00086180,0.0000
 3999,0.00035304,-0.00016379,0.00022631,0.00403697,0.01127658,0.0000253
 8,0.00894445,-0.00590340,0.00036077,0.00099680,-0.00008068,-0.00009568
 ,-0.00075128,-0.16268450,-0.00156862,-0.14296847,-0.00682902,-0.000735
 83,-0.02341077,0.00067559,-0.00006261,-0.00118151,0.16239423,-0.000072
 61,0.00212508,-0.00006889,0.00038717,0.00455531,-0.00046303,-0.0009712
 0,-0.00089587,-0.00057697,0.00033844,0.00448718,0.00002638,-0.00004639
 ,-0.00280994,0.00012094,-0.00169823,-0.02714670,-0.00452892,0.00042206
 ,-0.00092602,0.00085698,0.00006432,0.00139068,-0.00008377,0.00181860,0
 .02216944,-0.00111564,-0.00011441,-0.00009677,0.00192033,-0.00030722,-
 0.00510542,-0.01945376,0.00011732,-0.01160470,0.00199976,-0.00022054,-
 0.00000754,0.00039727,0.00011977,0.00042071,-0.14004460,-0.00444336,-0
 .25045553,0.00372248,0.00020834,0.00704608,-0.00013875,-0.00005346,0.0
 0037571,0.15353606,0.00455023,0.25927227,-0.00108095,0.00010481,0.0003
 3387,0.00104797,-0.00023634,-0.00113976,-0.00019996,0.00006048,0.00016
 290,0.00282059,-0.00023530,-0.02920741,0.00001015,0.00001510,0.0000324
 1,0.00007049,-0.00008957,-0.00159642,-0.00444380,0.00068214,0.00042199
 ,-0.05728551,0.00208995,0.02043157,-0.00042936,-0.00006198,0.00007613,
 0.06897448,0.00008926,0.00075482,-0.00004795,-0.00015445,-0.00228815,-
 0.00001304,-0.00003640,0.00014427,-0.00010320,-0.00044193,0.00368991,0
 .00273003,0.00000503,0.00013319,-0.00001262,-0.00006603,-0.00004468,0.
 00029374,0.00100045,0.00305017,-0.00021833,0.00306834,-0.03550986,-0.0
 0176212,0.00005434,-0.00040422,0.00000181,-0.00386022,0.02464010,-0.00
 148206,0.00009155,0.00026128,0.00251959,-0.00006774,0.00265000,-0.0009
 9146,-0.00003712,-0.00042428,0.00170113,-0.00035275,-0.01810193,0.0000
 3181,0.00000362,0.00002272,0.00005554,-0.00002987,-0.00045179,-0.00190
 928,0.00025198,0.00166126,0.02203885,-0.00244874,-0.32272719,-0.000250
 41,0.00000834,0.00015327,-0.02446552,0.00314454,0.34496079,0.00074573,
 0.00012894,-0.00031243,-0.00083703,-0.00003069,-0.00401818,-0.00648487
 ,0.00049381,-0.00005145,0.01083559,-0.00067170,-0.00849181,0.00022416,
 -0.00002529,0.00138255,-0.00651390,0.00174568,0.02483300,-0.16017876,0
 .01091053,0.14096553,-0.00027772,-0.00007332,0.00088285,0.00088741,-0.
 00025109,-0.00080003,0.00009001,-0.00005240,0.00007062,0.16619106,0.00
 016985,0.00252847,0.00000702,0.00048648,0.00363070,-0.00030563,0.00001
 662,0.00419125,-0.00028151,-0.00055967,-0.00156509,-0.00039681,0.00000
 205,0.00091015,-0.00004129,-0.00013389,0.00013817,-0.00025487,0.011687
 30,-0.02546693,-0.01592456,0.00076588,-0.00295223,0.00033113,-0.000069
 16,-0.00247198,0.00012818,-0.00002203,-0.00007897,-0.00000412,-0.01120
 265,0.02042173,0.00111883,-0.00016126,-0.00015815,-0.00161368,-0.00013
 889,-0.00504393,-0.00188231,-0.00015873,-0.00006952,0.01911788,-0.0011
 5337,-0.01031278,-0.00002331,-0.00003119,0.00038286,-0.00312759,0.0003
 6899,0.00665192,0.13937747,-0.01601731,-0.25050868,0.00057445,0.000087
 56,0.00068032,0.00072290,0.00009403,-0.00001765,-0.00003787,-0.0000433
 7,-0.00004136,-0.15482280,0.01689961,0.25872920,-0.00040982,-0.0000487
 9,-0.00024142,0.00866264,-0.00025858,-0.00421219,-0.00495906,0.0000949
 6,-0.00723891,-0.05065514,0.00575988,-0.00967903,0.00022461,-0.0001335
 6,-0.00022924,-0.00753477,0.00109724,0.00635126,0.01045632,-0.00046786
 ,0.01152565,-0.41221348,0.03744323,0.11815179,0.00000280,0.00002892,-0
 .00006521,-0.00488237,-0.00019902,0.00159500,0.00002618,-0.00072531,-0
 .00073189,0.74565791,0.00002724,-0.00017428,0.00002317,-0.00080532,0.0
 0317158,0.00034730,0.00057726,0.00001811,0.00093174,0.00545966,0.00528
 343,0.00092970,-0.00003137,-0.00033371,0.00002896,0.00101467,-0.000116
 24,-0.00087984,-0.00121316,0.00031708,-0.00098322,0.04032770,-0.052772
 18,-0.01207947,-0.00000280,-0.00005926,0.00001676,0.00060208,0.0034111
 1,-0.00017633,-0.00003455,-0.00008951,0.00000059,-0.08808020,0.1119235
 1,-0.00048345,0.00004152,-0.00024806,-0.00233846,-0.00003465,-0.001733
 33,-0.00270703,-0.00019518,0.00041029,-0.00649808,0.00101683,0.0191807
 3,-0.00019298,0.00015263,-0.00037108,-0.00024720,-0.00078390,-0.000636
 79,-0.00129836,0.00080177,-0.00204660,0.08907469,-0.00665258,-0.139465
 21,-0.00015775,0.00003207,0.00002661,0.03105612,-0.00191329,-0.0113716
 3,-0.00002176,0.00049083,-0.00060798,-0.03606641,-0.01285949,0.5704058
 5,-0.00000423,0.00001624,-0.00008880,-0.00089875,0.00020712,-0.0009984
 2,-0.00034910,0.00000646,0.00034352,-0.00117463,0.00180808,0.00367182,
 -0.00005983,-0.00008827,-0.00009745,-0.00012971,0.00002660,-0.00016731
 ,-0.00003066,-0.00002659,0.00011908,-0.02469231,0.00312778,-0.02154881
 ,-0.00004984,-0.00002793,-0.00001115,0.00003857,-0.00114564,-0.0001816
 9,-0.00001031,-0.00000441,-0.00007277,-0.18407930,0.02612003,-0.136843
 01,0.20339946,0.00003144,0.00004949,-0.00002032,0.00038350,0.00132038,
 0.00027543,-0.00011147,-0.00006118,-0.00029905,0.00145922,0.00829185,-
 0.00021332,0.00000267,-0.00047075,0.00002724,-0.00014475,0.00003679,0.
 00007349,0.00008747,-0.00023651,-0.00029050,0.00039524,0.00176514,0.00
 377769,0.00000426,-0.00015572,0.00000952,-0.00075690,-0.00657283,-0.00
 003116,0.00003736,0.00014794,0.00001076,0.02951285,-0.03119467,0.01949
 949,-0.02825397,0.02404399,-0.00001166,0.00000170,-0.00000823,-0.00010
 952,0.00013434,0.00024382,0.00014265,-0.00000948,0.00016574,0.00225897
 ,0.00024092,0.00071000,0.00001285,-0.00002997,0.00002198,0.00025064,0.
 00000630,-0.00001338,0.00001522,-0.00008089,-0.00041479,0.00873201,-0.
 00097809,0.00759623,0.00002900,-0.00000217,-0.00000161,0.00115897,-0.0
 0058308,0.00171364,0.00004217,0.00002578,0.00009977,-0.14030424,0.0221
 5848,-0.19226874,0.14124035,-0.02477712,0.21028380,0.00010348,0.000006
 43,-0.00002804,-0.00204915,0.00010048,0.00072499,0.00103388,0.00003612
 ,0.00129508,0.00543450,-0.00142361,0.00175844,-0.00003108,0.00001167,0
 .00009070,0.00130809,-0.00004009,-0.00048241,-0.00133506,-0.00018634,-
 0.00269723,-0.01021395,0.00152095,0.02909859,0.00005798,0.00002451,-0.
 00001934,-0.00365725,0.00161543,0.00118669,-0.00040812,0.00021381,0.00
 039354,-0.09560558,0.01407108,0.06557080,0.00675637,-0.00129191,-0.014
 69726,0.41247475,0.00011791,0.00010249,-0.00005049,0.00056652,0.000035
 57,-0.00010958,-0.00035966,-0.00033001,-0.00079924,0.00004077,-0.00421
 506,0.00032934,0.00000231,0.00006896,-0.00004869,-0.00090962,0.0002166
 9,0.00018577,0.00046221,0.00012963,0.00012375,0.00065592,0.00370629,-0
 .00109762,-0.00005932,0.00012287,0.00000715,0.00102491,0.00895362,-0.0
 0038682,-0.00009318,-0.00047460,0.00015180,0.01619471,-0.04415216,-0.0
 1135445,-0.00110029,0.00137742,0.00481801,-0.22518286,0.26906202,-0.00
 052287,0.00001166,0.00011173,-0.00000671,-0.00001310,-0.00028088,0.000
 25662,0.00033797,0.00072257,-0.00863572,0.00033491,-0.00332457,0.00004
 036,-0.00017463,0.00008584,0.00086890,0.00089680,0.00072893,0.00148372
 ,-0.00098115,0.00298482,0.02384885,-0.00554653,-0.02144941,0.00015869,
 -0.00001835,-0.00003531,0.00267833,-0.00183487,0.00196110,-0.00003016,
 -0.00032164,-0.00038132,0.03947477,0.00353292,-0.19650239,0.01237458,0
 .00393332,-0.02573038,0.00037132,-0.17505905,0.69704478,0.00002401,0.0
 0000969,-0.00000317,0.00010268,-0.00004902,-0.00006838,-0.00012183,0.0
 0004716,-0.00006853,-0.00047562,0.00030941,-0.00050749,0.00000877,-0.0
 0002986,0.00001059,-0.00004768,0.00009011,0.00015600,-0.00002770,-0.00
 008764,-0.00007984,0.00287685,0.00119439,0.00102635,-0.00001617,-0.000
 00891,-0.00000679,-0.00047429,-0.00059338,0.00028556,-0.00003060,0.000
 00533,0.00010986,-0.00927442,0.00727517,0.00517298,0.00087892,-0.00122
 625,0.00019894,-0.22947485,0.13416668,0.02415872,0.24614406,-0.0000607
 5,0.00004137,0.00003733,-0.00025586,-0.00013621,0.00006726,0.00010900,
 -0.00001661,0.00038400,-0.00031695,0.00027237,-0.00039393,0.00000276,0
 .00004149,0.00002975,0.00036467,-0.00018362,0.00000627,-0.00044444,0.0
 0010499,-0.00027142,-0.00020692,0.00059108,-0.00114915,0.00000123,-0.0
 0001708,-0.00000363,0.00003792,-0.00012155,0.00016159,0.00005599,0.000
 24996,0.00012536,0.00184367,0.00498407,0.00203846,-0.00026390,0.000384
 17,0.00089860,0.13349279,-0.10252276,-0.01439716,-0.14989367,0.1051604
 4,-0.00010033,0.00003294,0.00004665,-0.00025187,0.00011537,0.00018891,
 0.00020987,-0.00004574,0.00040112,-0.00002601,-0.00009265,-0.00021315,
 -0.00000055,-0.00000914,0.00003311,0.00044244,-0.00005363,-0.00009549,
 -0.00042613,-0.00011530,-0.00027606,-0.00111768,-0.00081408,-0.0040344
 0,0.00001150,0.00001251,0.00000131,0.00081693,0.00092330,-0.00043789,0
 .00005822,0.00014611,0.00012775,0.02711608,-0.01321257,-0.00251076,-0.
 00041623,0.00030250,0.00145190,0.02392836,-0.01007823,-0.04512406,-0.0
 3014806,0.00738001,0.05239177,0.00058334,-0.00010057,-0.00012902,0.004
 25696,0.00025155,-0.00170675,-0.00192534,-0.00067577,-0.00435756,-0.00
 238460,-0.00067788,-0.00081356,0.00004179,0.00022919,-0.00027587,-0.00
 487351,-0.00054259,0.00105441,0.00199537,0.00185782,0.00341150,0.00646
 932,-0.00068496,0.00979775,-0.00014512,0.00014312,0.00003737,-0.000869
 84,0.00158472,-0.00031301,-0.00292821,-0.00087847,-0.00044165,0.000820
 63,-0.00902549,-0.00612533,0.00009918,-0.00071272,0.00152475,-0.103479
 18,0.07697384,-0.07357024,-0.01204982,0.01651647,-0.02409932,0.2090081
 0,-0.00042705,0.00006597,0.00014321,-0.00268170,-0.00022399,0.00120743
 ,0.00185414,-0.00000778,0.00266545,0.00121394,-0.00160470,0.00118031,-
 0.00004454,0.00035199,0.00013622,0.00281134,-0.00109498,-0.00090209,-0
 .00161157,-0.00115200,-0.00136983,-0.00334484,0.00176083,-0.00562429,0
 .00024385,0.00016914,-0.00002552,0.00104971,0.00052899,-0.00010274,-0.
 00032403,0.00231711,-0.00018254,-0.00531005,-0.00279492,0.01075163,0.0
 0084373,0.00036048,-0.00397700,0.07726748,-0.13203621,0.16106829,0.009
 21084,-0.01312206,0.01669109,-0.17057525,0.35002458,0.00079102,-0.0001
 8913,-0.00041258,0.00537191,0.00003552,-0.00220420,-0.00386936,-0.0003
 1845,-0.00562322,-0.00138258,0.00061510,-0.00183645,0.00014146,-0.0000
 1978,-0.00031450,-0.00573361,0.00004027,0.00202388,0.00338302,0.002158
 95,0.00320103,0.00454165,0.00073886,0.01187562,-0.00049206,-0.00003639
 ,0.00004326,-0.00113530,-0.00002357,0.00020206,-0.00066070,-0.00155432
 ,0.00093055,-0.01677860,0.01476358,-0.04631492,0.00253894,-0.00138145,
 -0.00295447,-0.07477339,0.16393340,-0.39110728,-0.00303483,0.00469472,
 0.00008934,0.25487108,-0.50843361,1.17122377,-0.00030902,0.00011682,0.
 00005401,-0.00276504,-0.00016297,0.00136774,0.00131364,0.00035578,0.00
 248839,0.00237178,0.00037701,0.00160958,-0.00003900,-0.00006567,0.0001
 8226,0.00273953,0.00002784,-0.00046050,-0.00159521,-0.00152618,-0.0032
 2844,-0.00590990,0.00075875,-0.00390386,0.00014548,-0.00008882,-0.0000
 3412,0.00027108,-0.00086809,0.00010864,-0.00133063,0.00024826,0.001338
 95,0.00376284,0.00371800,0.00210521,0.00030616,0.00058394,-0.00048385,
 0.01908518,-0.00250086,-0.02294916,0.00195771,-0.00098202,0.00400278,-
 0.09461906,0.08982401,-0.16377867,0.07461446,0.00032699,-0.00004776,-0
 .00015072,0.00251257,0.00008185,-0.00099577,-0.00169744,0.00010505,-0.
 00253499,-0.00219519,0.00096996,-0.00140990,0.00005472,-0.00026213,-0.
 00011590,-0.00258695,0.00089989,0.00103930,0.00205821,0.00026416,0.001
 70825,0.00487794,-0.00157056,0.00318305,-0.00018073,-0.00013291,0.0000
 0906,-0.00040477,-0.00028593,-0.00002421,-0.00061340,-0.00143617,0.000
 14796,0.00324791,0.00257803,-0.00103170,-0.00124505,0.00091401,0.00215
 368,-0.00023594,-0.00004478,0.02823059,-0.00042005,0.00428995,-0.00118
 248,0.08631698,-0.20354244,0.32497630,-0.08981579,0.19721978,-0.000660
 98,0.00009557,0.00042215,-0.00571557,0.00011934,0.00198589,0.00411043,
 0.00011573,0.00592087,0.00568318,-0.00051588,0.00410768,-0.00018219,0.
 00004264,0.00026043,0.00590335,-0.00024012,-0.00289332,-0.00412254,-0.
 00078515,-0.00404139,-0.01208960,0.00141316,-0.00726646,0.00042282,0.0
 0007701,-0.00001469,0.00041307,-0.00053798,-0.00003004,0.00097436,0.00
 105610,-0.00046099,0.01133259,-0.00254228,0.00405400,0.00013734,-0.000
 89652,-0.00089526,-0.03172085,0.02943494,-0.01970418,0.00279809,0.0003
 9195,-0.00204007,-0.15886455,0.32677400,-0.73882189,0.18158106,-0.3540
 0252,0.75941728\\-0.00349527,0.00023864,0.00000035,0.00350706,-0.00075
 378,0.00003012,0.00000131,0.00049637,-0.00000347,-0.00001653,-0.000042
 05,-0.00002640,0.00000173,-0.00000634,0.00000475,-0.00001888,0.0000593
 0,0.00000115,0.00003460,-0.00006025,0.00000602,0.00002722,0.00005357,0
 .00000356,0.00000546,0.00001095,-0.00000356,-0.00000516,0.00001380,-0.
 00000327,0.00000357,0.00001174,-0.00000722,-0.00004476,-0.00001139,0.0
 0000683,-0.00001288,-0.00001489,0.00001384,0.00009604,0.00009001,-0.00
 000461,-0.00000210,0.00000317,0.00001440,-0.00015122,-0.00020489,-0.00
 008605,0.00006981,0.00011602,0.00005357\\\@


 WERE I TO AWAIT PERFECTION, MY BOOK WOULD NEVER BE FINISHED.
                                    -- HISTORY OF CHINESE WRITING

                                       TAI T'UNG, 13TH CENTURY
 Job cpu time:       0 days  1 hours 59 minutes 45.6 seconds.
 Elapsed time:       0 days  0 hours 10 minutes 13.9 seconds.
 File lengths (MBytes):  RWF=    182 Int=      0 D2E=      0 Chk=     32 Scr=      1
 Normal termination of Gaussian 16 at Sat Jun 11 01:58:29 2022.
