 Entering Gaussian System, Link 0=g16
 Input=ts_initalOpt_zmat_sp.gjf
 Output=ts_initalOpt_zmat_sp.out
 Initial command:
 /software/gaussian/g16-a03/l1.exe "/local_scratch/11174424/Gau-28440.inp" -scrdir="/local_scratch/11174424/"
 Entering Link 1 = /software/gaussian/g16-a03/l1.exe PID=     28441.
  
 Copyright (c) 1988,1990,1992,1993,1995,1998,2003,2009,2016,
            Gaussian, Inc.  All Rights Reserved.
  
 This is part of the Gaussian(R) 16 program.  It is based on
 the Gaussian(R) 09 system (copyright 2009, Gaussian, Inc.),
 the Gaussian(R) 03 system (copyright 2003, Gaussian, Inc.),
 the Gaussian(R) 98 system (copyright 1998, Gaussian, Inc.),
 the Gaussian(R) 94 system (copyright 1995, Gaussian, Inc.),
 the Gaussian 92(TM) system (copyright 1992, Gaussian, Inc.),
 the Gaussian 90(TM) system (copyright 1990, Gaussian, Inc.),
 the Gaussian 88(TM) system (copyright 1988, Gaussian, Inc.),
 the Gaussian 86(TM) system (copyright 1986, Carnegie Mellon
 University), and the Gaussian 82(TM) system (copyright 1983,
 Carnegie Mellon University). Gaussian is a federally registered
 trademark of Gaussian, Inc.
  
 This software contains proprietary and confidential information,
 including trade secrets, belonging to Gaussian, Inc.
  
 This software is provided under written license and may be
 used, copied, transmitted, or stored only in accord with that
 written license.
  
 The following legend is applicable only to US Government
 contracts under FAR:
  
                    RESTRICTED RIGHTS LEGEND
  
 Use, reproduction and disclosure by the US Government is
 subject to restrictions as set forth in subparagraphs (a)
 and (c) of the Commercial Computer Software - Restricted
 Rights clause in FAR 52.227-19.
  
 Gaussian, Inc.
 340 Quinnipiac St., Bldg. 40, Wallingford CT 06492
  
  
 ---------------------------------------------------------------
 Warning -- This program may not be used in any manner that
 competes with the business of Gaussian, Inc. or will provide
 assistance to any competitor of Gaussian, Inc.  The licensee
 of this program is prohibited from giving any competitor of
 Gaussian, Inc. access to this program.  By using this program,
 the user acknowledges that Gaussian, Inc. is engaged in the
 business of creating and licensing software in the field of
 computational chemistry and represents and warrants to the
 licensee that it is not a competitor of Gaussian, Inc. and that
 it will not use this program in any manner prohibited above.
 ---------------------------------------------------------------
  

 Cite this work as:
 Gaussian 16, Revision A.03,
 M. J. Frisch, G. W. Trucks, H. B. Schlegel, G. E. Scuseria, 
 M. A. Robb, J. R. Cheeseman, G. Scalmani, V. Barone, 
 G. A. Petersson, H. Nakatsuji, X. Li, M. Caricato, A. V. Marenich, 
 J. Bloino, B. G. Janesko, R. Gomperts, B. Mennucci, H. P. Hratchian, 
 J. V. Ortiz, A. F. Izmaylov, J. L. Sonnenberg, D. Williams-Young, 
 F. Ding, F. Lipparini, F. Egidi, J. Goings, B. Peng, A. Petrone, 
 T. Henderson, D. Ranasinghe, V. G. Zakrzewski, J. Gao, N. Rega, 
 G. Zheng, W. Liang, M. Hada, M. Ehara, K. Toyota, R. Fukuda, 
 J. Hasegawa, M. Ishida, T. Nakajima, Y. Honda, O. Kitao, H. Nakai, 
 T. Vreven, K. Throssell, J. A. Montgomery, Jr., J. E. Peralta, 
 F. Ogliaro, M. J. Bearpark, J. J. Heyd, E. N. Brothers, K. N. Kudin, 
 V. N. Staroverov, T. A. Keith, R. Kobayashi, J. Normand, 
 K. Raghavachari, A. P. Rendell, J. C. Burant, S. S. Iyengar, 
 J. Tomasi, M. Cossi, J. M. Millam, M. Klene, C. Adamo, R. Cammi, 
 J. W. Ochterski, R. L. Martin, K. Morokuma, O. Farkas, 
 J. B. Foresman, and D. J. Fox, Gaussian, Inc., Wallingford CT, 2016.
 
 ******************************************
 Gaussian 16:  ES64L-G16RevA.03 25-Dec-2016
                10-Jun-2022 
 ******************************************
 %nprocshared=12
 Will use up to   12 processors via shared memory.
 %chk=checkpoint.chk
 %mem=12GB
 --------------------------
 # sp B3LYP/Def2TZVP NoSymm
 --------------------------
 1/38=1,172=1/1;
 2/12=2,15=1,17=6,18=5,40=1/2;
 3/5=44,7=101,11=2,25=1,30=1,74=-5/1,2,3;
 4//1;
 5/5=2,38=5/2;
 6/7=2,8=2,9=2,10=2,28=1/1;
 99/5=1,9=1/99;
 ---------------------------
 ts_initalOpt_zmat_AlignedSp
 ---------------------------
 Symbolic Z-matrix:
 Charge =  0 Multiplicity = 1
 H
 N                    1    R2
 C                    2    R3       1    A3
 C                    2    R4       1    A4       3    D4       0
 H                    3    R5       2    A5       1    D5       0
 C                    3    R6       2    A6       5    D6       0
 C                    4    R7       2    A7       1    D7       0
 C                    4    R8       2    A8       7    D8       0
 H                    6    R9       3    A9       2    D9       0
 H                    8    R10      4    A10      2    D10      0
 H                    7    R11      4    A11      2    D11      0
 C                    8    R12      4    A12      10   D12      0
 H                    12   R13      8    A13      4    D13      0
 C                    12   R14      8    A14      13   D14      0
 H                    14   R15      12   A15      8    D15      0
 C                    14   R16      12   A16      15   D16      0
 O                    16   R17      14   A17      12   D17      0
       Variables:
  R2                    1.00598                  
  R3                    1.39127                  
  R4                    1.36115                  
  R5                    1.07689                  
  R6                    1.35653                  
  R7                    1.41561                  
  R8                    1.41638                  
  R9                    1.07683                  
  R10                   1.08165                  
  R11                   1.08329                  
  R12                   1.36916                  
  R13                   1.08422                  
  R14                   1.4159                   
  R15                   1.08553                  
  R16                   1.37596                  
  R17                   1.17946                  
  A3                  124.59398                  
  A4                  124.18827                  
  A5                  120.52344                  
  A6                  108.62359                  
  A7                  107.11247                  
  A8                  126.86937                  
  A9                  126.10544                  
  A10                 121.07605                  
  A11                 120.20679                  
  A12                 117.95383                  
  A13                 117.24586                  
  A14                 127.53786                  
  A15                 118.21837                  
  A16                 127.71795                  
  A17                 144.62153                  
  D4                 -167.10924                  
  D5                   10.31048                  
  D6                  179.95695                  
  D7                  169.42636                  
  D8                 -170.90186                  
  D9                 -178.12113                  
  D10                 -28.40808                  
  D11                 144.79912                  
  D12                 171.0814                   
  D13                -175.37208                  
  D14                 174.43414                  
  D15                -164.28668                  
  D16                 166.10212                  
  D17                 179.09517                  
 
                          Input orientation:                          
 ---------------------------------------------------------------------
 Center     Atomic      Atomic             Coordinates (Angstroms)
 Number     Number       Type             X           Y           Z
 ---------------------------------------------------------------------
      1          1           0        0.000000    0.000000    0.000000
      2          7           0        0.000000    0.000000    1.005983
      3          6           0        1.145292    0.000000    1.795889
      4          6           0       -1.097558   -0.251188    1.770830
      5          1           0        2.113714    0.166034    1.355107
      6          6           0        0.783744   -0.229131    3.083115
      7          6           0       -0.649558   -0.403340    3.105032
      8          6           0       -2.409777   -0.521572    1.311360
      9          1           0        1.445188   -0.258748    3.932335
     10          1           0       -2.763984   -0.125940    0.369038
     11          1           0       -1.261149   -0.054773    3.928429
     12          6           0       -3.152293   -1.445236    1.997018
     13          1           0       -4.124988   -1.700108    1.591498
     14          6           0       -2.759265   -2.199822    3.128791
     15          1           0       -3.353936   -3.066708    3.399457
     16          6           0       -1.561390   -2.143488    3.803476
     17          8           0       -0.948317   -2.578117    4.712522
 ---------------------------------------------------------------------
                    Distance matrix (angstroms):
                    1          2          3          4          5
     1  H    0.000000
     2  N    1.005983   0.000000
     3  C    2.130003   1.391275   0.000000
     4  C    2.098468   1.361147   2.257011   0.000000
     5  H    2.516280   2.148776   1.076892   3.264838   0.000000
     6  C    3.189413   2.231868   1.356528   2.293878   2.216075
     7  C    3.197786   2.233969   2.257881   1.415609   3.319954
     8  C    2.792620   2.484415   3.625648   1.416382   4.575662
     9  H    4.197473   3.273997   2.172853   3.337322   2.696196
    10  H    2.791354   2.839219   4.163436   2.181211   4.984928
    11  H    4.126263   3.183424   3.215849   2.172688   4.249757
    12  C    4.001717   3.606634   4.538545   2.387225   5.544282
    13  H    4.736957   4.499858   5.541480   3.361080   6.516116
    14  C    4.716152   4.118140   4.675618   2.898707   5.699925
    15  H    5.675376   5.136371   5.676195   3.958639   6.672720
    16  C    4.636692   3.854666   3.993879   2.815597   4.983452
    17  O    5.454709   4.613504   4.420026   3.753720   5.308355
                    6          7          8          9         10
     6  C    0.000000
     7  C    1.444016   0.000000
     8  C    3.663770   2.515872   0.000000
     9  H    1.076829   2.256833   4.668977   0.000000
    10  H    4.468023   3.468921   1.081646   5.516507   0.000000
    11  H    2.219581   1.083293   2.895911   2.714016   3.864303
    12  C    4.260387   2.928639   1.369165   5.127381   2.131114
    13  H    5.337073   4.006371   2.099851   6.211594   2.413452
    14  C    4.054457   2.771061   2.498344   4.700093   3.452137
    15  H    5.027158   3.807083   3.424807   5.585713   4.263755
    16  C    3.111806   2.085036   3.092089   3.550825   4.160780
    17  O    3.342564   2.720833   4.234754   3.423015   5.308075
                   11         12         13         14         15
    11  H    0.000000
    12  C    3.039764   0.000000
    13  H    4.045979   1.084224   0.000000
    14  C    2.735875   1.415903   2.116172   0.000000
    15  H    3.705581   2.153292   2.393916   1.085535   0.000000
    16  C    2.113880   2.506355   3.414889   1.375964   2.056402
    17  O    2.660814   3.676260   4.539044   2.435332   2.783857
                   16         17
    16  C    0.000000
    17  O    1.179459   0.000000
 Symmetry turned off by external request.
 Stoichiometry    C8H7NO
 Framework group  C1[X(C8H7NO)]
 Deg. of freedom    45
 Full point group                 C1      NOp   1
 Rotational constants (GHZ):           2.1586789           1.3713930           0.8800753
 Standard basis: def2TZVP (5D, 7F)
   352 basis functions,   566 primitive gaussians,   402 cartesian basis functions
    35 alpha electrons       35 beta electrons
       nuclear repulsion energy       480.1692803848 Hartrees.
 NAtoms=   17 NActive=   17 NUniq=   17 SFac= 1.00D+00 NAtFMM=   60 NAOKFM=F Big=F
 Integral buffers will be    131072 words long.
 Raffenetti 2 integral format.
 Two-electron integral symmetry is turned off.
 One-electron integrals computed using PRISM.
   1 Symmetry operations used in ECPInt.
 ECPInt:  NShTT=    9591 NPrTT=   29644 LenC2=    9332 LenP2D=   22719.
 LDataN:  DoStor=T MaxTD1= 6 Len=  172
 NBasis=   352 RedAO= T EigKep=  3.58D-05  NBF=   352
 NBsUse=   352 1.00D-06 EigRej= -1.00D+00 NBFU=   352
 ExpMin= 9.52D-02 ExpMax= 2.70D+04 ExpMxC= 9.22D+02 IAcc=3 IRadAn=         5 AccDes= 0.00D+00
 Harris functional with IExCor=  402 and IRadAn=       5 diagonalized for initial guess.
 HarFok:  IExCor=  402 AccDes= 0.00D+00 IRadAn=         5 IDoV= 1 UseB2=F ITyADJ=14
 ICtDFT=  3500011 ScaDFX=  1.000000  1.000000  1.000000  1.000000
 FoFCou: FMM=F IPFlag=           0 FMFlag=      100000 FMFlg1=           0
         NFxFlg=           0 DoJE=T BraDBF=F KetDBF=T FulRan=T
         wScrn=  0.000000 ICntrl=       500 IOpCl=  0 I1Cent=   200000004 NGrid=           0
         NMat0=    1 NMatS0=      1 NMatT0=    0 NMatD0=    1 NMtDS0=    0 NMtDT0=    0
 Symmetry not used in FoFCou.
 Requested convergence on RMS density matrix=1.00D-08 within 128 cycles.
 Requested convergence on MAX density matrix=1.00D-06.
 Requested convergence on             energy=1.00D-06.
 No special actions if energy rises.
 Integral accuracy reduced to 1.0D-05 until final iterations.
 Initial convergence to 1.0D-05 achieved.  Increase integral accuracy.
 SCF Done:  E(RB3LYP) =  -439.135083534     A.U. after   15 cycles
            NFock= 15  Conv=0.79D-08     -V/T= 2.0049

 **********************************************************************

            Population analysis using the SCF density.

 **********************************************************************

 Alpha  occ. eigenvalues --  -19.14303 -14.37915 -10.27785 -10.22925 -10.21405
 Alpha  occ. eigenvalues --  -10.19272 -10.18027 -10.17577 -10.17044 -10.16967
 Alpha  occ. eigenvalues --   -1.07474  -1.00024  -0.83058  -0.79474  -0.75550
 Alpha  occ. eigenvalues --   -0.71101  -0.61853  -0.61368  -0.59807  -0.53842
 Alpha  occ. eigenvalues --   -0.49970  -0.48997  -0.46576  -0.45690  -0.44302
 Alpha  occ. eigenvalues --   -0.43481  -0.41931  -0.40199  -0.39193  -0.38068
 Alpha  occ. eigenvalues --   -0.36778  -0.32321  -0.26700  -0.24716  -0.19268
 Alpha virt. eigenvalues --   -0.05933  -0.02090   0.01907   0.02972   0.05556
 Alpha virt. eigenvalues --    0.06039   0.07350   0.08365   0.09108   0.10872
 Alpha virt. eigenvalues --    0.11328   0.12274   0.12997   0.14630   0.15827
 Alpha virt. eigenvalues --    0.16836   0.18939   0.19443   0.21250   0.21638
 Alpha virt. eigenvalues --    0.22128   0.22834   0.24434   0.25921   0.27021
 Alpha virt. eigenvalues --    0.27469   0.28594   0.29222   0.30786   0.31168
 Alpha virt. eigenvalues --    0.32813   0.33794   0.34566   0.35680   0.36202
 Alpha virt. eigenvalues --    0.37269   0.37519   0.38910   0.40194   0.41552
 Alpha virt. eigenvalues --    0.41877   0.42452   0.43499   0.43971   0.44422
 Alpha virt. eigenvalues --    0.44860   0.45267   0.46817   0.48341   0.48640
 Alpha virt. eigenvalues --    0.50368   0.50966   0.52833   0.53272   0.54692
 Alpha virt. eigenvalues --    0.57202   0.58450   0.60075   0.61521   0.61886
 Alpha virt. eigenvalues --    0.64206   0.64864   0.66354   0.67540   0.68680
 Alpha virt. eigenvalues --    0.70501   0.71039   0.73900   0.74570   0.77343
 Alpha virt. eigenvalues --    0.79676   0.80375   0.81929   0.85271   0.87024
 Alpha virt. eigenvalues --    0.88817   0.89937   0.92127   0.92977   0.94360
 Alpha virt. eigenvalues --    0.97018   0.97488   0.98097   0.99763   1.01663
 Alpha virt. eigenvalues --    1.05121   1.06623   1.08021   1.08055   1.08850
 Alpha virt. eigenvalues --    1.12818   1.14153   1.15599   1.16862   1.20352
 Alpha virt. eigenvalues --    1.21631   1.22909   1.25089   1.27070   1.27960
 Alpha virt. eigenvalues --    1.29128   1.31216   1.32023   1.33757   1.36395
 Alpha virt. eigenvalues --    1.39509   1.39979   1.41905   1.42114   1.44066
 Alpha virt. eigenvalues --    1.45898   1.47759   1.48914   1.49429   1.50278
 Alpha virt. eigenvalues --    1.50843   1.51170   1.54641   1.55342   1.58552
 Alpha virt. eigenvalues --    1.60492   1.60763   1.63439   1.63927   1.65088
 Alpha virt. eigenvalues --    1.65937   1.68470   1.72013   1.74851   1.76464
 Alpha virt. eigenvalues --    1.78958   1.80812   1.81799   1.84040   1.85194
 Alpha virt. eigenvalues --    1.88327   1.91221   1.92893   1.94647   1.98968
 Alpha virt. eigenvalues --    2.00500   2.01154   2.04862   2.04913   2.06113
 Alpha virt. eigenvalues --    2.09131   2.10896   2.13105   2.17415   2.19178
 Alpha virt. eigenvalues --    2.21166   2.22207   2.24379   2.26383   2.27618
 Alpha virt. eigenvalues --    2.31324   2.33460   2.36009   2.37318   2.40937
 Alpha virt. eigenvalues --    2.42307   2.47722   2.49471   2.52028   2.53170
 Alpha virt. eigenvalues --    2.54224   2.55361   2.58035   2.59166   2.59542
 Alpha virt. eigenvalues --    2.61417   2.64158   2.64882   2.65182   2.66896
 Alpha virt. eigenvalues --    2.69740   2.70910   2.72553   2.73536   2.75638
 Alpha virt. eigenvalues --    2.77115   2.77929   2.78319   2.80415   2.83123
 Alpha virt. eigenvalues --    2.84422   2.84809   2.86801   2.87575   2.89863
 Alpha virt. eigenvalues --    2.91590   2.92974   2.93996   2.94756   2.96343
 Alpha virt. eigenvalues --    2.99585   3.00254   3.02878   3.04626   3.05375
 Alpha virt. eigenvalues --    3.06799   3.09595   3.10947   3.11781   3.13056
 Alpha virt. eigenvalues --    3.14215   3.16589   3.17481   3.19482   3.19723
 Alpha virt. eigenvalues --    3.21233   3.22335   3.24186   3.25498   3.26661
 Alpha virt. eigenvalues --    3.27709   3.28970   3.29834   3.31351   3.32140
 Alpha virt. eigenvalues --    3.36675   3.37292   3.40135   3.41045   3.41847
 Alpha virt. eigenvalues --    3.42236   3.45578   3.46352   3.47742   3.49469
 Alpha virt. eigenvalues --    3.49979   3.52034   3.55675   3.58625   3.59757
 Alpha virt. eigenvalues --    3.60717   3.62007   3.65663   3.67212   3.72571
 Alpha virt. eigenvalues --    3.79024   3.79520   3.81528   3.86181   3.89122
 Alpha virt. eigenvalues --    3.90220   3.93460   3.94914   3.97407   4.00708
 Alpha virt. eigenvalues --    4.02421   4.04321   4.09807   4.11936   4.13133
 Alpha virt. eigenvalues --    4.17462   4.18048   4.20810   4.22770   4.24654
 Alpha virt. eigenvalues --    4.27081   4.34834   4.36916   4.38843   4.40917
 Alpha virt. eigenvalues --    4.44304   4.45048   4.52861   4.55500   4.59822
 Alpha virt. eigenvalues --    4.67960   4.68414   4.69917   4.72380   4.75459
 Alpha virt. eigenvalues --    4.79575   4.80910   4.87641   4.93609   4.96275
 Alpha virt. eigenvalues --    4.97983   5.01182   5.03466   5.08999   5.11315
 Alpha virt. eigenvalues --    5.15717   5.17035   5.18526   5.19895   5.27910
 Alpha virt. eigenvalues --    5.30083   5.35406   5.45211   5.55756   5.63535
 Alpha virt. eigenvalues --    5.64790   5.66968   5.87198   5.99071   6.30408
 Alpha virt. eigenvalues --    6.35667   6.43759   6.50147   6.62718   6.81029
 Alpha virt. eigenvalues --    6.95390   7.14014  22.26305  22.39442  22.60696
 Alpha virt. eigenvalues --   22.65213  22.75232  22.76506  23.10693  23.29684
 Alpha virt. eigenvalues --   32.30097  43.92044
          Condensed to atoms (all electrons):
               1          2          3          4          5          6
     1  H    0.473568   0.376995  -0.040225  -0.046501  -0.003267   0.008579
     2  N    0.376995   6.338404   0.364804   0.404959  -0.034732  -0.098118
     3  C   -0.040225   0.364804   4.937374  -0.117109   0.409879   0.545015
     4  C   -0.046501   0.404959  -0.117109   4.922463   0.006594  -0.031401
     5  H   -0.003267  -0.034732   0.409879   0.006594   0.504145  -0.023894
     6  C    0.008579  -0.098118   0.545015  -0.031401  -0.023894   5.072067
     7  C    0.008053  -0.061737  -0.025811   0.423998   0.004991   0.263412
     8  C    0.002472  -0.054044   0.001339   0.362942  -0.000666   0.019123
     9  H   -0.000099   0.004285  -0.047573   0.008718  -0.002079   0.435109
    10  H    0.002400  -0.000085   0.000381  -0.065912  -0.000009  -0.001354
    11  H   -0.000159   0.004416   0.009667  -0.064831  -0.000160  -0.048286
    12  C   -0.000543  -0.002824  -0.000301  -0.071076   0.000072   0.004777
    13  H   -0.000030  -0.000211   0.000010   0.012341  -0.000001   0.000096
    14  C    0.000091   0.001872   0.003175  -0.044000   0.000013  -0.006594
    15  H   -0.000019  -0.000044  -0.000018   0.002296  -0.000000  -0.000451
    16  C   -0.000282   0.001841  -0.000454   0.045981   0.000017  -0.002501
    17  O    0.000036   0.000188  -0.000685   0.001379  -0.000004   0.017691
               7          8          9         10         11         12
     1  H    0.008053   0.002472  -0.000099   0.002400  -0.000159  -0.000543
     2  N   -0.061737  -0.054044   0.004285  -0.000085   0.004416  -0.002824
     3  C   -0.025811   0.001339  -0.047573   0.000381   0.009667  -0.000301
     4  C    0.423998   0.362942   0.008718  -0.065912  -0.064831  -0.071076
     5  H    0.004991  -0.000666  -0.002079  -0.000009  -0.000160   0.000072
     6  C    0.263412   0.019123   0.435109  -0.001354  -0.048286   0.004777
     7  C    5.289749  -0.076788  -0.044344   0.011283   0.454843  -0.021610
     8  C   -0.076788   5.156097  -0.000042   0.420465   0.006746   0.555781
     9  H   -0.044344  -0.000042   0.521407   0.000010  -0.003006  -0.000078
    10  H    0.011283   0.420465   0.000010   0.560690  -0.000113  -0.031561
    11  H    0.454843   0.006746  -0.003006  -0.000113   0.534005  -0.007084
    12  C   -0.021610   0.555781  -0.000078  -0.031561  -0.007084   4.854304
    13  H   -0.000927  -0.044821  -0.000000  -0.008989  -0.000270   0.409533
    14  C   -0.052818  -0.034607   0.000132   0.007273   0.006357   0.395746
    15  H    0.008648   0.001071  -0.000009  -0.000154   0.000124  -0.053580
    16  C    0.099298  -0.035718  -0.000440  -0.000068  -0.022237  -0.016515
    17  O   -0.090009   0.002399   0.002211   0.000004  -0.004691   0.003927
              13         14         15         16         17
     1  H   -0.000030   0.000091  -0.000019  -0.000282   0.000036
     2  N   -0.000211   0.001872  -0.000044   0.001841   0.000188
     3  C    0.000010   0.003175  -0.000018  -0.000454  -0.000685
     4  C    0.012341  -0.044000   0.002296   0.045981   0.001379
     5  H   -0.000001   0.000013  -0.000000   0.000017  -0.000004
     6  C    0.000096  -0.006594  -0.000451  -0.002501   0.017691
     7  C   -0.000927  -0.052818   0.008648   0.099298  -0.090009
     8  C   -0.044821  -0.034607   0.001071  -0.035718   0.002399
     9  H   -0.000000   0.000132  -0.000009  -0.000440   0.002211
    10  H   -0.008989   0.007273  -0.000154  -0.000068   0.000004
    11  H   -0.000270   0.006357   0.000124  -0.022237  -0.004691
    12  C    0.409533   0.395746  -0.053580  -0.016515   0.003927
    13  H    0.567920  -0.046944  -0.005988   0.005907  -0.000190
    14  C   -0.046944   5.247147   0.397376   0.469039  -0.075689
    15  H   -0.005988   0.397376   0.564056  -0.026785  -0.000113
    16  C    0.005907   0.469039  -0.026785   4.611233   0.665731
    17  O   -0.000190  -0.075689  -0.000113   0.665731   7.686106
 Mulliken charges:
               1
     1  H    0.218932
     2  N   -0.245969
     3  C   -0.039468
     4  C    0.249159
     5  H    0.139100
     6  C   -0.153269
     7  C   -0.190230
     8  C   -0.281748
     9  H    0.125798
    10  H    0.105739
    11  H    0.134680
    12  C   -0.018968
    13  H    0.112564
    14  C   -0.267568
    15  H    0.113590
    16  C    0.205953
    17  O   -0.208293
 Sum of Mulliken charges =  -0.00000
 Mulliken charges with hydrogens summed into heavy atoms:
               1
     2  N   -0.027037
     3  C    0.099632
     4  C    0.249159
     6  C   -0.027471
     7  C   -0.055551
     8  C   -0.176009
    12  C    0.093596
    14  C   -0.153978
    16  C    0.205953
    17  O   -0.208293
 Electronic spatial extent (au):  <R**2>=           3464.0403
 Charge=             -0.0000 electrons
 Dipole moment (field-independent basis, Debye):
    X=              0.6559    Y=              1.7632    Z=             -3.6582  Tot=              4.1136
 Quadrupole moment (field-independent basis, Debye-Ang):
   XX=            -53.9257   YY=            -65.3413   ZZ=            -73.5607
   XY=              1.6567   XZ=              3.1249   YZ=              9.0233
 Traceless Quadrupole moment (field-independent basis, Debye-Ang):
   XX=             10.3502   YY=             -1.0654   ZZ=             -9.2848
   XY=              1.6567   XZ=              3.1249   YZ=              9.0233
 Octapole moment (field-independent basis, Debye-Ang**2):
  XXX=            180.9540  YYY=            180.1979  ZZZ=           -522.4114  XYY=             57.5779
  XXY=             43.6892  XXZ=           -144.9574  XZZ=             78.8242  YZZ=            107.5753
  YYZ=           -177.2151  XYZ=              1.1341
 Hexadecapole moment (field-independent basis, Debye-Ang**3):
 XXXX=          -1146.5950 YYYY=           -751.5700 ZZZZ=          -3209.0302 XXXY=           -264.9856
 XXXZ=            493.1836 YYYX=           -311.3624 YYYZ=            624.7395 ZZZX=            573.5691
 ZZZY=            846.4618 XXYY=           -291.8182 XXZZ=           -670.4272 YYZZ=           -734.8083
 XXYZ=            157.7458 YYXZ=            147.4043 ZZXY=           -128.9857
 N-N= 4.801692803848D+02 E-N=-1.982878193720D+03  KE= 4.369871497427D+02
 1\1\GINC-BHC0068\SP\RB3LYP\def2TZVP\C8H7N1O1\DHANAWAY\10-Jun-2022\0\\#
  sp B3LYP/Def2TZVP NoSymm\\ts_initalOpt_zmat_AlignedSp\\0,1\H\N,1,1.00
 598274\C,2,1.39127487,1,124.59397708\C,2,1.3611471,1,124.18826987,3,-1
 67.10923987,0\H,3,1.0768922,2,120.52343789,1,10.31048445,0\C,3,1.35652
 832,2,108.62358929,5,179.95694792,0\C,4,1.41560941,2,107.11247349,1,16
 9.42636429,0\C,4,1.41638221,2,126.86937386,7,-170.90185638,0\H,6,1.076
 82917,3,126.10544269,2,-178.12112864,0\H,8,1.08164578,4,121.07605033,2
 ,-28.40807541,0\H,7,1.08329337,4,120.20679282,2,144.79912116,0\C,8,1.3
 6916462,4,117.95383127,10,171.08139766,0\H,12,1.08422433,8,117.2458612
 5,4,-175.37208272,0\C,12,1.41590314,8,127.53786294,13,174.43413945,0\H
 ,14,1.08553481,12,118.21836886,8,-164.28668081,0\C,14,1.37596407,12,12
 7.71795328,15,166.10211955,0\O,16,1.17945944,14,144.62153333,12,179.09
 517094,0\\Version=ES64L-G16RevA.03\HF=-439.1350835\RMSD=7.851e-09\Dipo
 le=0.2580479,0.6937037,-1.4392506\Quadrupole=7.6951239,-0.7920964,-6.9
 030275,1.2317428,2.3233168,6.7086102\PG=C01 [X(C8H7N1O1)]\\@


 AND THIS OUR LIFE, EXEMPT FROM PUBLIC HAUNT,
 FINDS TONGUES IN TREES, BOOKS IN THE RUNNING BROOKS,
 SERMONS IN STONES, AND GOOD IN EVERYTHING.
 I WOULD NOT CHANGE IT. -- W. SHAKESPEARE
 AS YOU LIKE IT, ACT II, SCENE 1.
 Job cpu time:       0 days  0 hours 17 minutes 38.3 seconds.
 Elapsed time:       0 days  0 hours  1 minutes 28.5 seconds.
 File lengths (MBytes):  RWF=     71 Int=      0 D2E=      0 Chk=     32 Scr=      1
 Normal termination of Gaussian 16 at Fri Jun 10 22:23:33 2022.
