 Entering Gaussian System, Link 0=g16
 Input=ts_zmat_field_N50.gjf
 Output=ts_zmat_field_N50.out
 Initial command:
 /software/gaussian/g16-a03/l1.exe "/local_scratch/11174559/Gau-16673.inp" -scrdir="/local_scratch/11174559/"
 Entering Link 1 = /software/gaussian/g16-a03/l1.exe PID=     16674.
  
 Copyright (c) 1988,1990,1992,1993,1995,1998,2003,2009,2016,
            Gaussian, Inc.  All Rights Reserved.
  
 This is part of the Gaussian(R) 16 program.  It is based on
 the Gaussian(R) 09 system (copyright 2009, Gaussian, Inc.),
 the Gaussian(R) 03 system (copyright 2003, Gaussian, Inc.),
 the Gaussian(R) 98 system (copyright 1998, Gaussian, Inc.),
 the Gaussian(R) 94 system (copyright 1995, Gaussian, Inc.),
 the Gaussian 92(TM) system (copyright 1992, Gaussian, Inc.),
 the Gaussian 90(TM) system (copyright 1990, Gaussian, Inc.),
 the Gaussian 88(TM) system (copyright 1988, Gaussian, Inc.),
 the Gaussian 86(TM) system (copyright 1986, Carnegie Mellon
 University), and the Gaussian 82(TM) system (copyright 1983,
 Carnegie Mellon University). Gaussian is a federally registered
 trademark of Gaussian, Inc.
  
 This software contains proprietary and confidential information,
 including trade secrets, belonging to Gaussian, Inc.
  
 This software is provided under written license and may be
 used, copied, transmitted, or stored only in accord with that
 written license.
  
 The following legend is applicable only to US Government
 contracts under FAR:
  
                    RESTRICTED RIGHTS LEGEND
  
 Use, reproduction and disclosure by the US Government is
 subject to restrictions as set forth in subparagraphs (a)
 and (c) of the Commercial Computer Software - Restricted
 Rights clause in FAR 52.227-19.
  
 Gaussian, Inc.
 340 Quinnipiac St., Bldg. 40, Wallingford CT 06492
  
  
 ---------------------------------------------------------------
 Warning -- This program may not be used in any manner that
 competes with the business of Gaussian, Inc. or will provide
 assistance to any competitor of Gaussian, Inc.  The licensee
 of this program is prohibited from giving any competitor of
 Gaussian, Inc. access to this program.  By using this program,
 the user acknowledges that Gaussian, Inc. is engaged in the
 business of creating and licensing software in the field of
 computational chemistry and represents and warrants to the
 licensee that it is not a competitor of Gaussian, Inc. and that
 it will not use this program in any manner prohibited above.
 ---------------------------------------------------------------
  

 Cite this work as:
 Gaussian 16, Revision A.03,
 M. J. Frisch, G. W. Trucks, H. B. Schlegel, G. E. Scuseria, 
 M. A. Robb, J. R. Cheeseman, G. Scalmani, V. Barone, 
 G. A. Petersson, H. Nakatsuji, X. Li, M. Caricato, A. V. Marenich, 
 J. Bloino, B. G. Janesko, R. Gomperts, B. Mennucci, H. P. Hratchian, 
 J. V. Ortiz, A. F. Izmaylov, J. L. Sonnenberg, D. Williams-Young, 
 F. Ding, F. Lipparini, F. Egidi, J. Goings, B. Peng, A. Petrone, 
 T. Henderson, D. Ranasinghe, V. G. Zakrzewski, J. Gao, N. Rega, 
 G. Zheng, W. Liang, M. Hada, M. Ehara, K. Toyota, R. Fukuda, 
 J. Hasegawa, M. Ishida, T. Nakajima, Y. Honda, O. Kitao, H. Nakai, 
 T. Vreven, K. Throssell, J. A. Montgomery, Jr., J. E. Peralta, 
 F. Ogliaro, M. J. Bearpark, J. J. Heyd, E. N. Brothers, K. N. Kudin, 
 V. N. Staroverov, T. A. Keith, R. Kobayashi, J. Normand, 
 K. Raghavachari, A. P. Rendell, J. C. Burant, S. S. Iyengar, 
 J. Tomasi, M. Cossi, J. M. Millam, M. Klene, C. Adamo, R. Cammi, 
 J. W. Ochterski, R. L. Martin, K. Morokuma, O. Farkas, 
 J. B. Foresman, and D. J. Fox, Gaussian, Inc., Wallingford CT, 2016.
 
 ******************************************
 Gaussian 16:  ES64L-G16RevA.03 25-Dec-2016
                10-Jun-2022 
 ******************************************
 %nprocshared=12
 Will use up to   12 processors via shared memory.
 %chk=checkpoint.chk
 %mem=12GB
 ----------------------------------------------------------------------
 # Opt=(TS, CalcFC, noeigentest, Z-matrix, MaxStep=10) geom=allcheckpoi
 nt guess=read Field=read NoSymm B3LYP/Def2TZVP freq=noraman pop=none
 ----------------------------------------------------------------------
 1/5=1,8=10,10=4,11=1,18=40,26=3,29=7,38=1/1,3;
 2/12=2,15=1,29=3,40=1/2;
 3/5=44,7=101,11=2,14=-6,25=1,30=1,71=2,74=-5,116=-2,140=1/1,2,3;
 4/5=1/1;
 5/5=2,38=6/2;
 8/6=4,10=90,11=11/1;
 11/6=1,8=1,9=11,15=111,16=1,31=1/1,2,10;
 10/6=1,13=1,31=1/2;
 7/10=1,18=20,25=1,30=1/1,2,3,16;
 1/5=1,8=10,10=4,11=1,18=40,26=3/3(2);
 2/15=1,29=3/2;
 99//99;
 2/15=1,29=3/2;
 3/5=44,7=101,11=2,14=-2,25=1,30=1,71=1,74=-5/1,2,3;
 4/5=5,16=3,69=1/1;
 5/5=2,38=5/2;
 7/30=1/1,2,3,16;
 1/5=1,8=10,11=1,18=40,26=3/3(-5);
 2/15=1,29=3/2;
 99/9=1/99;
 Structure from the checkpoint file:  "checkpoint.chk"
 -----------------
 ts_zmat_initalOpt
 -----------------
 Charge =  0 Multiplicity = 1
 Z-Matrix found in chk file.
 H
 N,1,R2
 C,2,R3,1,A3
 C,2,R4,1,A4,3,D4,0
 H,3,R5,2,A5,1,D5,0
 C,3,R6,2,A6,5,D6,0
 C,4,R7,2,A7,1,D7,0
 C,4,R8,2,A8,7,D8,0
 H,6,R9,3,A9,2,D9,0
 H,8,R10,4,A10,2,D10,0
 H,7,R11,4,A11,2,D11,0
 C,8,R12,4,A12,10,D12,0
 H,12,R13,8,A13,4,D13,0
 C,12,R14,8,A14,13,D14,0
 H,14,R15,12,A15,8,D15,0
 C,14,R16,12,A16,15,D16,0
 O,16,R17,14,A17,12,D17,0
      Variables:
 R2=1.00641215
 R3=1.38874697
 R4=1.35923138
 R5=1.07680884
 R6=1.35794269
 R7=1.41478581
 R8=1.41882063
 R9=1.07674358
 R10=1.08169264
 R11=1.08276376
 R12=1.3660092
 R13=1.08425567
 R14=1.41950705
 R15=1.08599695
 R16=1.37314933
 R17=1.18036904
 A3=125.11904341
 A4=124.23839132
 A5=120.58180308
 A6=108.53112549
 A7=107.12030707
 A8=126.65659716
 A9=125.95348927
 A10=120.9070088
 A11=120.40220937
 A12=118.15216787
 A13=117.29024181
 A14=127.49250541
 A15=118.02279187
 A16=128.04195792
 A17=144.9748455
 D4=-172.54810181
 D5=5.92808817
 D6=180.2861561
 D7=173.54027753
 D8=-171.11371388
 D9=-178.48008122
 D10=-28.70009017
 D11=145.83817206
 D12=171.19436042
 D13=-175.25473975
 D14=174.54557409
 D15=-164.00229867
 D16=165.75056875
 D17=178.3156108
 Recover connectivity data from disk.

 GradGradGradGradGradGradGradGradGradGradGradGradGradGradGradGradGradGrad
 Berny optimization.
 Initialization pass.
                       ----------------------------
                       !    Initial Parameters    !
                       ! (Angstroms and Degrees)  !
 ----------------------                            ----------------------
 !      Name          Value   Derivative information (Atomic Units)     !
 ------------------------------------------------------------------------
 !       R2          1.0064   calculate D2E/DX2 analytically            !
 !       R3          1.3887   calculate D2E/DX2 analytically            !
 !       R4          1.3592   calculate D2E/DX2 analytically            !
 !       R5          1.0768   calculate D2E/DX2 analytically            !
 !       R6          1.3579   calculate D2E/DX2 analytically            !
 !       R7          1.4148   calculate D2E/DX2 analytically            !
 !       R8          1.4188   calculate D2E/DX2 analytically            !
 !       R9          1.0767   calculate D2E/DX2 analytically            !
 !       R10         1.0817   calculate D2E/DX2 analytically            !
 !       R11         1.0828   calculate D2E/DX2 analytically            !
 !       R12         1.366    calculate D2E/DX2 analytically            !
 !       R13         1.0843   calculate D2E/DX2 analytically            !
 !       R14         1.4195   calculate D2E/DX2 analytically            !
 !       R15         1.086    calculate D2E/DX2 analytically            !
 !       R16         1.3731   calculate D2E/DX2 analytically            !
 !       R17         1.1804   calculate D2E/DX2 analytically            !
 !       A3        125.119    calculate D2E/DX2 analytically            !
 !       A4        124.2384   calculate D2E/DX2 analytically            !
 !       A5        120.5818   calculate D2E/DX2 analytically            !
 !       A6        108.5311   calculate D2E/DX2 analytically            !
 !       A7        107.1203   calculate D2E/DX2 analytically            !
 !       A8        126.6566   calculate D2E/DX2 analytically            !
 !       A9        125.9535   calculate D2E/DX2 analytically            !
 !       A10       120.907    calculate D2E/DX2 analytically            !
 !       A11       120.4022   calculate D2E/DX2 analytically            !
 !       A12       118.1522   calculate D2E/DX2 analytically            !
 !       A13       117.2902   calculate D2E/DX2 analytically            !
 !       A14       127.4925   calculate D2E/DX2 analytically            !
 !       A15       118.0228   calculate D2E/DX2 analytically            !
 !       A16       128.042    calculate D2E/DX2 analytically            !
 !       A17       144.9748   calculate D2E/DX2 analytically            !
 !       D4       -172.5481   calculate D2E/DX2 analytically            !
 !       D5          5.9281   calculate D2E/DX2 analytically            !
 !       D6        180.2862   calculate D2E/DX2 analytically            !
 !       D7        173.5403   calculate D2E/DX2 analytically            !
 !       D8       -171.1137   calculate D2E/DX2 analytically            !
 !       D9       -178.4801   calculate D2E/DX2 analytically            !
 !       D10       -28.7001   calculate D2E/DX2 analytically            !
 !       D11       145.8382   calculate D2E/DX2 analytically            !
 !       D12       171.1944   calculate D2E/DX2 analytically            !
 !       D13      -175.2547   calculate D2E/DX2 analytically            !
 !       D14       174.5456   calculate D2E/DX2 analytically            !
 !       D15      -164.0023   calculate D2E/DX2 analytically            !
 !       D16       165.7506   calculate D2E/DX2 analytically            !
 !       D17       178.3156   calculate D2E/DX2 analytically            !
 ------------------------------------------------------------------------
 Trust Radius=1.00D-01 FncErr=1.00D-07 GrdErr=1.00D-06 EigMax=2.50D+02 EigMin=1.00D-04
 Number of steps in this run=     55 maximum allowed number of steps=    100.
 Search for a saddle point of order  1.
 GradGradGradGradGradGradGradGradGradGradGradGradGradGradGradGradGradGrad

 ---------------------------------------------------------------------------------------------------
                            Z-MATRIX (ANGSTROMS AND DEGREES)
   CD    Cent   Atom    N1       Length/X        N2       Alpha/Y        N3        Beta/Z          J
 ---------------------------------------------------------------------------------------------------
      1      1  H 
      2      2  N        1   1.006412(     1)
      3      3  C        2   1.388747(     2)      1  125.119(    17)
      4      4  C        2   1.359231(     3)      1  124.238(    18)      3 -172.548(    32)      0
      5      5  H        3   1.076809(     4)      2  120.582(    19)      1    5.928(    33)      0
      6      6  C        3   1.357943(     5)      2  108.531(    20)      5  180.286(    34)      0
      7      7  C        4   1.414786(     6)      2  107.120(    21)      1  173.540(    35)      0
      8      8  C        4   1.418821(     7)      2  126.657(    22)      7 -171.114(    36)      0
      9      9  H        6   1.076744(     8)      3  125.953(    23)      2 -178.480(    37)      0
     10     10  H        8   1.081693(     9)      4  120.907(    24)      2  -28.700(    38)      0
     11     11  H        7   1.082764(    10)      4  120.402(    25)      2  145.838(    39)      0
     12     12  C        8   1.366009(    11)      4  118.152(    26)     10  171.194(    40)      0
     13     13  H       12   1.084256(    12)      8  117.290(    27)      4 -175.255(    41)      0
     14     14  C       12   1.419507(    13)      8  127.493(    28)     13  174.546(    42)      0
     15     15  H       14   1.085997(    14)     12  118.023(    29)      8 -164.002(    43)      0
     16     16  C       14   1.373149(    15)     12  128.042(    30)     15  165.751(    44)      0
     17     17  O       16   1.180369(    16)     14  144.975(    31)     12  178.316(    45)      0
 ---------------------------------------------------------------------------------------------------
                         Z-Matrix orientation:                         
 ---------------------------------------------------------------------
 Center     Atomic      Atomic             Coordinates (Angstroms)
 Number     Number       Type             X           Y           Z
 ---------------------------------------------------------------------
      1          1           0        0.000000    0.000000    0.000000
      2          7           0        0.000000    0.000000    1.006412
      3          6           0        1.135937    0.000000    1.805327
      4          6           0       -1.114191   -0.145735    1.771167
      5          1           0        2.114499    0.095744    1.366274
      6          6           0        0.752616   -0.139371    3.100567
      7          6           0       -0.686338   -0.243185    3.116181
      8          6           0       -2.436721   -0.367321    1.307630
      9          1           0        1.406835   -0.151296    3.955688
     10          1           0       -2.755792    0.000248    0.341635
     11          1           0       -1.290080    0.169751    3.914527
     12          6           0       -3.238640   -1.208806    2.025131
     13          1           0       -4.218407   -1.430197    1.616899
     14          6           0       -2.904540   -1.923574    3.205167
     15          1           0       -3.550229   -2.743684    3.504994
     16          6           0       -1.720739   -1.902523    3.900661
     17          8           0       -1.148616   -2.313671    4.847711
 ---------------------------------------------------------------------
                    Distance matrix (angstroms):
                    1          2          3          4          5
     1  H    0.000000
     2  N    1.006412   0.000000
     3  C    2.132969   1.388747   0.000000
     4  C    2.097544   1.359231   2.255102   0.000000
     5  H    2.519321   2.147038   1.076809   3.262927   0.000000
     6  C    3.193646   2.229650   1.357943   2.291793   2.217607
     7  C    3.200122   2.231888   2.257912   1.414786   3.319900
     8  C    2.789700   2.482592   3.625812   1.418821   4.575093
     9  H    4.201136   3.271132   2.172632   3.335826   2.695716
    10  H    2.776887   2.834840   4.157878   2.181679   4.977825
    11  H    4.125124   3.185947   3.219177   2.173583   4.253261
    12  C    4.006390   3.603858   4.543837   2.389122   5.549058
    13  H    4.738648   4.495900   5.545265   3.363004   6.518973
    14  C    4.733877   4.119589   4.688832   2.902141   5.714012
    15  H    5.693585   5.135643   5.690063   3.961032   6.687721
    16  C    4.668586   3.867456   4.021271   2.826474   5.012509
    17  O    5.492968   4.629036   4.452905   3.763809   5.345429
                    6          7          8          9         10
     6  C    0.000000
     7  C    1.442778   0.000000
     8  C    3.665850   2.519942   0.000000
     9  H    1.076744   2.257119   4.672451   0.000000
    10  H    4.465437   3.469871   1.081693   5.514690   0.000000
    11  H    2.220516   1.082764   2.898128   2.716268   3.865566
    12  C    4.269704   2.938888   1.366009   5.140604   2.128172
    13  H    5.345892   4.016510   2.097560   6.224859   2.410750
    14  C    4.070517   2.784250   2.498285   4.721462   3.452975
    15  H    5.045837   3.821720   3.422778   5.612136   4.262292
    16  C    3.141073   2.106846   3.097303   3.584905   4.166358
    17  O    3.375614   2.738395   4.240244   3.464375   5.314316
                   11         12         13         14         15
    11  H    0.000000
    12  C    3.044195   0.000000
    13  H    4.051423   1.084256   0.000000
    14  C    2.737094   1.419507   2.119496   0.000000
    15  H    3.709999   2.154746   2.395122   1.085997   0.000000
    16  C    2.116596   2.510553   3.417163   1.373149   2.052105
    17  O    2.656733   3.681831   4.543378   2.435856   2.784878
                   16         17
    16  C    0.000000
    17  O    1.180369   0.000000
 Symmetry turned off by external request.
 Stoichiometry    C8H7NO
 Framework group  C1[X(C8H7NO)]
 Deg. of freedom    45
 Full point group                 C1      NOp   1
 Rotational constants (GHZ):           2.1603480           1.3598512           0.8752569
 Standard basis: def2TZVP (5D, 7F)
 The following finite field(s) will be applied:
 An electric field of             -0.0030 -0.0006  0.0039
   352 basis functions,   566 primitive gaussians,   402 cartesian basis functions
    35 alpha electrons       35 beta electrons
       nuclear repulsion energy       479.5693598649 Hartrees.
 NAtoms=   17 NActive=   17 NUniq=   17 SFac= 1.00D+00 NAtFMM=   60 NAOKFM=F Big=F
 Integral buffers will be    131072 words long.
 Raffenetti 2 integral format.
 Two-electron integral symmetry is turned off.
 One-electron integrals computed using PRISM.
   1 Symmetry operations used in ECPInt.
 ECPInt:  NShTT=    9591 NPrTT=   29644 LenC2=    9331 LenP2D=   22707.
 LDataN:  DoStor=T MaxTD1= 6 Len=  172
 NBasis=   352 RedAO= T EigKep=  3.65D-05  NBF=   352
 NBsUse=   352 1.00D-06 EigRej= -1.00D+00 NBFU=   352
 The nuclear repulsion energy is now       481.4400350326 hartrees.
 Initial guess from the checkpoint file:  "checkpoint.chk"
 B after Tr=     0.000000    0.000000    0.000000
         Rot=    1.000000   -0.000000    0.000000    0.000000 Ang=   0.00 deg.
 Requested convergence on RMS density matrix=1.00D-08 within 128 cycles.
 Requested convergence on MAX density matrix=1.00D-06.
 Requested convergence on             energy=1.00D-06.
 No special actions if energy rises.
 SCF Done:  E(RB3LYP) =  -439.143729075     A.U. after   11 cycles
            NFock= 11  Conv=0.57D-08     -V/T= 2.0049
 DoSCS=F DFT=T ScalE2(SS,OS)=  1.000000  1.000000
 Range of M.O.s used for correlation:     1   352
 NBasis=   352 NAE=    35 NBE=    35 NFC=     0 NFV=     0
 NROrb=    352 NOA=    35 NOB=    35 NVA=   317 NVB=   317

 **** Warning!!: The largest alpha MO coefficient is  0.29391042D+02

   1 Symmetry operations used in ECPInt.
 ECPInt:  NShTT=    9591 NPrTT=   29644 LenC2=    9331 LenP2D=   22707.
 LDataN:  DoStor=T MaxTD1= 7 Len=  274
 Symmetrizing basis deriv contribution to polar:
 IMax=3 JMax=2 DiffMx= 0.00D+00
 G2DrvN: will do    18 centers at a time, making    1 passes.
 Calling FoFCou, ICntrl=  3107 FMM=F I1Cent=   0 AccDes= 0.00D+00.
 End of G2Drv F.D. properties file   721 does not exist.
 End of G2Drv F.D. properties file   722 does not exist.
 End of G2Drv F.D. properties file   788 does not exist.
          IDoAtm=11111111111111111
          Differentiating once with respect to nuclear coordinates.
 CalDSu exits because no D1Ps are significant.
          There are    54 degrees of freedom in the 1st order CPHF.  IDoFFX=6 NUNeed=     0.
     48 vectors produced by pass  0 Test12= 2.05D-14 1.85D-09 XBig12= 1.22D-01 1.06D-01.
 AX will form    48 AO Fock derivatives at one time.
     48 vectors produced by pass  1 Test12= 2.05D-14 1.85D-09 XBig12= 2.20D-02 4.19D-02.
     48 vectors produced by pass  2 Test12= 2.05D-14 1.85D-09 XBig12= 2.76D-04 2.18D-03.
     48 vectors produced by pass  3 Test12= 2.05D-14 1.85D-09 XBig12= 1.03D-06 9.51D-05.
     48 vectors produced by pass  4 Test12= 2.05D-14 1.85D-09 XBig12= 2.99D-09 6.39D-06.
     48 vectors produced by pass  5 Test12= 2.05D-14 1.85D-09 XBig12= 5.81D-12 3.05D-07.
     19 vectors produced by pass  6 Test12= 2.05D-14 1.85D-09 XBig12= 1.14D-14 1.23D-08.
 InvSVY:  IOpt=1 It=  1 EMax= 3.89D-16
 Solved reduced A of dimension   307 with    54 vectors.
 End of Minotr F.D. properties file   721 does not exist.
 End of Minotr F.D. properties file   722 does not exist.
 End of Minotr F.D. properties file   788 does not exist.
   1 Symmetry operations used in ECPInt.
 ECPInt:  NShTT=    9591 NPrTT=   29644 LenC2=    9331 LenP2D=   22707.
 LDataN:  DoStor=T MaxTD1= 8 Len=  415
 Calling FoFJK, ICntrl=    100147 FMM=F ISym2X=0 I1Cent= 0 IOpClX= 0 NMat=1 NMatS=1 NMatT=0.
 -------------------------------------------------------------------
 Center     Atomic                   Forces (Hartrees/Bohr)
 Number     Number              X              Y              Z
 -------------------------------------------------------------------
      1        1           0.001144100   -0.000618292   -0.000623369
      2        7          -0.001812550    0.000838959    0.001586712
      3        6          -0.000441446   -0.000356183   -0.000205243
      4        6           0.001408762    0.000213903   -0.001475360
      5        1           0.000010442    0.000002325   -0.000090741
      6        6           0.000025973   -0.000059008    0.000130316
      7        6          -0.000460281   -0.001236413    0.001234721
      8        6          -0.001021988   -0.000566942    0.000397119
      9        1           0.000108827    0.000018240   -0.000156578
     10        1           0.000093321   -0.000071595    0.000021616
     11        1           0.000026478    0.000404653   -0.000123749
     12        6           0.000116727    0.001127951   -0.001416761
     13        1           0.000002291   -0.000024327   -0.000229115
     14        6           0.000323112   -0.000389061    0.001889897
     15        1          -0.000160972   -0.000335271   -0.000202855
     16        6           0.000011776    0.002535336   -0.003782170
     17        8           0.000625428   -0.001484276    0.003045559
 -------------------------------------------------------------------
 Cartesian Forces:  Max     0.003782170 RMS     0.001067912
 -----------------------------------------------------------------------------------------------
                       Internal Coordinate Forces (Hartree/Bohr or radian)
  Cent   Atom   N1       Length/X         N2         Alpha/Y        N3         Beta/Z          J
 -----------------------------------------------------------------------------------------------
      1  H 
      2  N        1   0.000623(     1)
      3  C        2  -0.000428(     2)      1  -0.001084(    17)
      4  C        2  -0.001170(     3)      1  -0.001757(    18)      3  -0.001349(    32)     0
      5  H        3   0.000047(     4)      2  -0.000159(    19)      1   0.000107(    33)     0
      6  C        3  -0.000059(     5)      2   0.000679(    20)      5   0.000118(    34)     0
      7  C        4   0.000982(     6)      2   0.002283(    21)      1   0.000735(    35)     0
      8  C        4  -0.000024(     7)      2   0.000493(    22)      7   0.002190(    36)     0
      9  H        6  -0.000058(     8)      3  -0.000371(    23)      2  -0.000007(    37)     0
     10  H        8  -0.000071(     9)      4  -0.000110(    24)      2   0.002500(    38)     0
     11  H        7   0.000048(    10)      4  -0.000384(    25)      2  -0.000665(    39)     0
     12  C        8  -0.001786(    11)      4  -0.002889(    26)     10   0.002361(    40)     0
     13  H       12   0.000089(    12)      8  -0.000340(    27)      4   0.002466(    41)     0
     14  C       12   0.000814(    13)      8  -0.003184(    28)     13   0.002225(    42)     0
     15  H       14   0.000293(    14)     12  -0.000408(    29)      8   0.001005(    43)     0
     16  C       14   0.000192(    15)     12  -0.001289(    30)     15   0.000583(    44)     0
     17  O       16   0.003264(    16)     14  -0.002385(    31)     12  -0.000350(    45)     0
 -----------------------------------------------------------------------------------------------
 Internal  Forces:  Max     0.003263704 RMS     0.001383411

 GradGradGradGradGradGradGradGradGradGradGradGradGradGradGradGradGradGrad
 Berny optimization.
 Search for a saddle point.
 Step number   1 out of a maximum of   55
 All quantities printed in internal units (Hartrees-Bohrs-Radians)
 Swapping is turned off.
 Second derivative matrix not updated -- analytic derivatives used.
 ITU=  0
     Eigenvalues ---   -0.23176   0.00856   0.01777   0.01951   0.03130
     Eigenvalues ---    0.03460   0.04027   0.04903   0.05992   0.10013
     Eigenvalues ---    0.11139   0.11533   0.14751   0.16575   0.17056
     Eigenvalues ---    0.18006   0.18313   0.21048   0.23451   0.27215
     Eigenvalues ---    0.30835   0.32134   0.33780   0.34638   0.35170
     Eigenvalues ---    0.35476   0.35762   0.37202   0.37391   0.37411
     Eigenvalues ---    0.39497   0.42233   0.44668   0.46935   0.48146
     Eigenvalues ---    0.49875   0.52793   0.58963   0.82191   0.90582
     Eigenvalues ---    1.13102   1.51799   2.03374   2.23038  16.17584
 Eigenvectors required to have negative eigenvalues:
                          A17       D11       A12       D8        R16
   1                    0.60528   0.46205   0.28020  -0.22499  -0.21254
                          A16       A11       A8        A14       R17
   1                    0.20205   0.17874  -0.17827   0.15227  -0.13525
 RFO step:  Lambda0=9.648833536D-05 Lambda=-2.04309459D-04.
 Linear search not attempted -- option 19 set.
 Maximum step size (   0.100) exceeded in Quadratic search.
    -- Step size scaled by   0.864
 Variable       Old X    -DE/DX   Delta X   Delta X   Delta X     New X
                                 (Linear)    (Quad)   (Total)
    R2        1.90184   0.00062   0.00000   0.00095   0.00095   1.90279
    R3        2.62435  -0.00043   0.00000  -0.00393  -0.00393   2.62042
    R4        2.56858  -0.00117   0.00000  -0.00233  -0.00233   2.56624
    R5        2.03487   0.00005   0.00000   0.00003   0.00003   2.03490
    R6        2.56614  -0.00006   0.00000   0.00246   0.00246   2.56860
    R7        2.67356   0.00098   0.00000  -0.00148  -0.00148   2.67208
    R8        2.68118  -0.00002   0.00000   0.00368   0.00368   2.68486
    R9        2.03475  -0.00006   0.00000  -0.00010  -0.00010   2.03465
   R10        2.04410  -0.00007   0.00000   0.00013   0.00013   2.04423
   R11        2.04613   0.00005   0.00000  -0.00083  -0.00083   2.04530
   R12        2.58138  -0.00179   0.00000  -0.00513  -0.00513   2.57625
   R13        2.04895   0.00009   0.00000   0.00003   0.00003   2.04897
   R14        2.68248   0.00081   0.00000   0.00628   0.00628   2.68876
   R15        2.05224   0.00029   0.00000   0.00097   0.00097   2.05321
   R16        2.59488   0.00019   0.00000  -0.00511  -0.00511   2.58976
   R17        2.23057   0.00326   0.00000   0.00171   0.00171   2.23229
    A3        2.18374  -0.00108   0.00000   0.00612   0.00612   2.18986
    A4        2.16837  -0.00176   0.00000  -0.00125  -0.00125   2.16712
    A5        2.10455  -0.00016   0.00000   0.00075   0.00075   2.10530
    A6        1.89423   0.00068   0.00000  -0.00118  -0.00118   1.89304
    A7        1.86960   0.00228   0.00000   0.00037   0.00037   1.86998
    A8        2.21057   0.00049   0.00000  -0.00364  -0.00364   2.20693
    A9        2.19830  -0.00037   0.00000  -0.00233  -0.00233   2.19598
   A10        2.11023  -0.00011   0.00000  -0.00298  -0.00298   2.10725
   A11        2.10141  -0.00038   0.00000   0.00359   0.00359   2.10501
   A12        2.06214  -0.00289   0.00000   0.00406   0.00406   2.06620
   A13        2.04710  -0.00034   0.00000   0.00081   0.00081   2.04791
   A14        2.22516  -0.00318   0.00000  -0.00082  -0.00082   2.22434
   A15        2.05989  -0.00041   0.00000  -0.00305  -0.00305   2.05684
   A16        2.23475  -0.00129   0.00000   0.00535   0.00535   2.24010
   A17        2.53029  -0.00238   0.00000   0.00636   0.00636   2.53665
    D4       -3.01153  -0.00135   0.00000  -0.06499  -0.06499  -3.07652
    D5        0.10346   0.00011   0.00000  -0.05094  -0.05094   0.05252
    D6        3.14659   0.00012   0.00000   0.00275   0.00275   3.14934
    D7        3.02885   0.00073   0.00000   0.04917   0.04917   3.07801
    D8       -2.98650   0.00219   0.00000  -0.00581  -0.00581  -2.99231
    D9       -3.11507  -0.00001   0.00000  -0.00210  -0.00210  -3.11716
   D10       -0.50091   0.00250   0.00000  -0.00266  -0.00266  -0.50357
   D11        2.54536  -0.00067   0.00000   0.01476   0.01476   2.56011
   D12        2.98791   0.00236   0.00000   0.00477   0.00477   2.99267
   D13       -3.05877   0.00247   0.00000  -0.00078  -0.00078  -3.05955
   D14        3.04639   0.00222   0.00000   0.00194   0.00194   3.04834
   D15       -2.86238   0.00100   0.00000   0.00353   0.00353  -2.85885
   D16        2.89289   0.00058   0.00000  -0.00499  -0.00499   2.88790
   D17        3.11219  -0.00035   0.00000  -0.01055  -0.01055   3.10164
         Item               Value     Threshold  Converged?
 Maximum Force            0.003264     0.000450     NO 
 RMS     Force            0.001383     0.000300     NO 
 Maximum Displacement     0.064991     0.001800     NO 
 RMS     Displacement     0.014907     0.001200     NO 
 Predicted change in Energy=-5.389089D-05
 GradGradGradGradGradGradGradGradGradGradGradGradGradGradGradGradGradGrad

 ---------------------------------------------------------------------------------------------------
                            Z-MATRIX (ANGSTROMS AND DEGREES)
   CD    Cent   Atom    N1       Length/X        N2       Alpha/Y        N3        Beta/Z          J
 ---------------------------------------------------------------------------------------------------
      1      1  H 
      2      2  N        1   1.006915(     1)
      3      3  C        2   1.386666(     2)      1  125.470(    17)
      4      4  C        2   1.357996(     3)      1  124.167(    18)      3 -176.272(    32)      0
      5      5  H        3   1.076823(     4)      2  120.625(    19)      1    3.009(    33)      0
      6      6  C        3   1.359245(     5)      2  108.463(    20)      5  180.444(    34)      0
      7      7  C        4   1.414003(     6)      2  107.142(    21)      1  176.357(    35)      0
      8      8  C        4   1.420767(     7)      2  126.448(    22)      7 -171.447(    36)      0
      9      9  H        6   1.076690(     8)      3  125.820(    23)      2 -178.600(    37)      0
     10     10  H        8   1.081762(     9)      4  120.737(    24)      2  -28.853(    38)      0
     11     11  H        7   1.082324(    10)      4  120.608(    25)      2  146.684(    39)      0
     12     12  C        8   1.363295(    11)      4  118.385(    26)     10  171.468(    40)      0
     13     13  H       12   1.084270(    12)      8  117.336(    27)      4 -175.299(    41)      0
     14     14  C       12   1.422828(    13)      8  127.445(    28)     13  174.657(    42)      0
     15     15  H       14   1.086510(    14)     12  117.848(    29)      8 -163.800(    43)      0
     16     16  C       14   1.370443(    15)     12  128.348(    30)     15  165.465(    44)      0
     17     17  O       16   1.181276(    16)     14  145.339(    31)     12  177.711(    45)      0
 ---------------------------------------------------------------------------------------------------
                         Z-Matrix orientation:                         
 ---------------------------------------------------------------------
 Center     Atomic      Atomic             Coordinates (Angstroms)
 Number     Number       Type             X           Y           Z
 ---------------------------------------------------------------------
      1          1           0        0.000000    0.000000    0.000000
      2          7           0        0.000000    0.000000    1.006915
      3          6           0        1.129332    0.000000    1.811559
      4          6           0       -1.121235   -0.073061    1.769573
      5          1           0        2.113036    0.048648    1.376237
      6          6           0        0.733144   -0.077658    3.109462
      7          6           0       -0.704051   -0.131907    3.119351
      8          6           0       -2.449908   -0.257676    1.301463
      9          1           0        1.383060   -0.075721    3.967872
     10          1           0       -2.744115    0.091487    0.320781
     11          1           0       -1.299875    0.322048    3.900596
     12          6           0       -3.293850   -1.035923    2.036762
     13          1           0       -4.278211   -1.229384    1.625364
     14          6           0       -3.002806   -1.721564    3.249046
     15          1           0       -3.686365   -2.504320    3.566134
     16          6           0       -1.831826   -1.730219    3.960975
     17          8           0       -1.288668   -2.124196    4.933176
 ---------------------------------------------------------------------
                    Distance matrix (angstroms):
                    1          2          3          4          5
     1  H    0.000000
     2  N    1.006915   0.000000
     3  C    2.134745   1.386666   0.000000
     4  C    2.096162   1.357996   2.252144   0.000000
     5  H    2.522165   2.145620   1.076823   3.260374   0.000000
     6  C    3.195667   2.228056   1.359245   2.287804   2.219037
     7  C    3.200537   2.230576   2.255884   1.414003   3.317684
     8  C    2.786081   2.480968   3.624576   1.420767   4.573826
     9  H    4.202689   3.268923   2.172510   3.332269   2.695350
    10  H    2.764315   2.830074   4.151431   2.181700   4.970688
    11  H    4.124080   3.188539   3.220068   2.174691   4.253834
    12  C    4.008863   3.603216   4.548449   2.391390   5.554008
    13  H    4.738806   4.494102   5.548655   3.365170   6.522535
    14  C    4.747307   4.124049   4.701565   2.906323   5.728256
    15  H    5.707733   5.139116   5.704480   3.964662   6.704204
    16  C    4.694526   3.882746   4.047481   2.837843   5.040554
    17  O    5.523505   4.646332   4.483685   3.774066   5.380025
                    6          7          8          9         10
     6  C    0.000000
     7  C    1.438253   0.000000
     8  C    3.665117   2.523599   0.000000
     9  H    1.076690   2.253703   4.672738   0.000000
    10  H    4.460570   3.470412   1.081762   5.510245   0.000000
    11  H    2.217843   1.082324   2.900715   2.713095   3.867048
    12  C    4.276171   2.948949   1.363295   5.150209   2.125525
    13  H    5.351887   4.026297   2.095667   6.234442   2.408337
    14  C    4.084022   2.797875   2.498348   4.739339   3.453811
    15  H    5.062539   3.836946   3.421253   5.635473   4.261264
    16  C    3.167823   2.129509   3.102163   3.615647   4.171558
    17  O    3.406168   2.756983   4.245200   3.502312   5.319941
                   11         12         13         14         15
    11  H    0.000000
    12  C    3.048589   0.000000
    13  H    4.056366   1.084270   0.000000
    14  C    2.738767   1.422828   2.122555   0.000000
    15  H    3.714237   2.156209   2.396317   1.086510   0.000000
    16  C    2.120948   2.514390   3.419168   1.370443   2.048035
    17  O    2.655271   3.687046   4.547491   2.436530   2.786081
                   16         17
    16  C    0.000000
    17  O    1.181276   0.000000
 Symmetry turned off by external request.
 Stoichiometry    C8H7NO
 Framework group  C1[X(C8H7NO)]
 Deg. of freedom    45
 Full point group                 C1      NOp   1
 Rotational constants (GHZ):           2.1629330           1.3485621           0.8706603
 Standard basis: def2TZVP (5D, 7F)
 The following finite field(s) will be applied:
 An electric field of             -0.0030 -0.0006  0.0039
   352 basis functions,   566 primitive gaussians,   402 cartesian basis functions
    35 alpha electrons       35 beta electrons
       nuclear repulsion energy       479.0270419802 Hartrees.
 NAtoms=   17 NActive=   17 NUniq=   17 SFac= 1.00D+00 NAtFMM=   60 NAOKFM=F Big=F
 Integral buffers will be    131072 words long.
 Raffenetti 2 integral format.
 Two-electron integral symmetry is turned off.
 One-electron integrals computed using PRISM.
   1 Symmetry operations used in ECPInt.
 ECPInt:  NShTT=    9591 NPrTT=   29644 LenC2=    9326 LenP2D=   22690.
 LDataN:  DoStor=T MaxTD1= 6 Len=  172
 NBasis=   352 RedAO= T EigKep=  3.70D-05  NBF=   352
 NBsUse=   352 1.00D-06 EigRej= -1.00D+00 NBFU=   352
 The nuclear repulsion energy is now       480.9186685159 hartrees.
 Initial guess from the checkpoint file:  "checkpoint.chk"
 B after Tr=     0.015600   -0.061725    0.008865
         Rot=    0.999623    0.018482    0.004910    0.019700 Ang=   3.15 deg.
 ExpMin= 9.52D-02 ExpMax= 2.70D+04 ExpMxC= 9.22D+02 IAcc=2 IRadAn=         4 AccDes= 0.00D+00
 Harris functional with IExCor=  402 and IRadAn=       4 diagonalized for initial guess.
 HarFok:  IExCor=  402 AccDes= 0.00D+00 IRadAn=         4 IDoV= 1 UseB2=F ITyADJ=14
 ICtDFT=  3500011 ScaDFX=  1.000000  1.000000  1.000000  1.000000
 FoFCou: FMM=F IPFlag=           0 FMFlag=      100000 FMFlg1=           0
         NFxFlg=           0 DoJE=T BraDBF=F KetDBF=T FulRan=T
         wScrn=  0.000000 ICntrl=       500 IOpCl=  0 I1Cent=   200000004 NGrid=           0
         NMat0=    1 NMatS0=      1 NMatT0=    0 NMatD0=    1 NMtDS0=    0 NMtDT0=    0
 Symmetry not used in FoFCou.
 Requested convergence on RMS density matrix=1.00D-08 within 128 cycles.
 Requested convergence on MAX density matrix=1.00D-06.
 Requested convergence on             energy=1.00D-06.
 No special actions if energy rises.
 Integral accuracy reduced to 1.0D-05 until final iterations.
 Initial convergence to 1.0D-05 achieved.  Increase integral accuracy.
 SCF Done:  E(RB3LYP) =  -439.143777850     A.U. after   12 cycles
            NFock= 12  Conv=0.77D-08     -V/T= 2.0049
   1 Symmetry operations used in ECPInt.
 ECPInt:  NShTT=    9591 NPrTT=   29644 LenC2=    9326 LenP2D=   22690.
 LDataN:  DoStor=T MaxTD1= 7 Len=  274
 Calling FoFJK, ICntrl=      2127 FMM=F ISym2X=0 I1Cent= 0 IOpClX= 0 NMat=1 NMatS=1 NMatT=0.
 -------------------------------------------------------------------
 Center     Atomic                   Forces (Hartrees/Bohr)
 Number     Number              X              Y              Z
 -------------------------------------------------------------------
      1        1           0.001554960   -0.001368568   -0.000088551
      2        7          -0.001596910    0.002089840    0.000476541
      3        6           0.000322603   -0.000758224   -0.000296207
      4        6          -0.000229413    0.000043087   -0.000387657
      5        1           0.000005383   -0.000013628   -0.000008315
      6        6           0.001872011    0.000084935    0.000143111
      7        6          -0.001882194   -0.000182944    0.000254255
      8        6          -0.000078872   -0.000048759    0.000057262
      9        1           0.000109818    0.000013922   -0.000055211
     10        1           0.000010814   -0.000017611   -0.000002405
     11        1          -0.000106049    0.000001668   -0.000018636
     12        6          -0.000028237    0.000131201   -0.000191153
     13        1          -0.000003921   -0.000003387   -0.000026079
     14        6           0.000017206   -0.000042004    0.000258233
     15        1          -0.000021675   -0.000052135   -0.000029712
     16        6          -0.000051909    0.000294465   -0.000535164
     17        8           0.000106386   -0.000171858    0.000449687
 -------------------------------------------------------------------
 Cartesian Forces:  Max     0.002089840 RMS     0.000632055
 -----------------------------------------------------------------------------------------------
                       Internal Coordinate Forces (Hartree/Bohr or radian)
  Cent   Atom   N1       Length/X         N2         Alpha/Y        N3         Beta/Z          J
 -----------------------------------------------------------------------------------------------
      1  H 
      2  N        1   0.000089(     1)
      3  C        2   0.001755(     2)      1  -0.009158(    17)
      4  C        2   0.001779(     3)      1  -0.009237(    18)      3  -0.000654(    32)     0
      5  H        3   0.000008(     4)      2  -0.000010(    19)      1  -0.000116(    33)     0
      6  C        3  -0.000499(     5)      2   0.005184(    20)      5  -0.000091(    34)     0
      7  C        4  -0.000354(     6)      2   0.005452(    21)      1   0.000045(    35)     0
      8  C        4   0.000042(     7)      2  -0.000124(    22)      7   0.000252(    36)     0
      9  H        6   0.000022(     8)      3  -0.000247(    23)      2   0.000009(    37)     0
     10  H        8  -0.000006(     9)      4  -0.000009(    24)      2   0.000460(    38)     0
     11  H        7   0.000046(    10)      4  -0.000172(    25)      2   0.000087(    39)     0
     12  C        8  -0.000140(    11)      4  -0.000045(    26)     10   0.000426(    40)     0
     13  H       12   0.000014(    12)      8  -0.000037(    27)      4   0.000414(    41)     0
     14  C       12   0.000118(    13)      8  -0.000239(    28)     13   0.000389(    42)     0
     15  H       14   0.000043(    14)     12  -0.000057(    29)      8   0.000184(    43)     0
     16  C       14   0.000001(    15)     12  -0.000146(    30)     15   0.000114(    44)     0
     17  O       16   0.000476(    16)     14  -0.000260(    31)     12  -0.000065(    45)     0
 -----------------------------------------------------------------------------------------------
 Internal  Forces:  Max     0.009237124 RMS     0.002281495

 GradGradGradGradGradGradGradGradGradGradGradGradGradGradGradGradGradGrad
 Berny optimization.
 Search for a saddle point.
 Step number   2 out of a maximum of   55
 All quantities printed in internal units (Hartrees-Bohrs-Radians)
 Swapping is turned off.
 Update second derivatives using D2CorN and points    1    2
 ITU=  0  0
     Eigenvalues ---   -0.23163   0.01031   0.01777   0.01950   0.03130
     Eigenvalues ---    0.03480   0.04023   0.04905   0.05992   0.10013
     Eigenvalues ---    0.11139   0.11532   0.14749   0.16575   0.17056
     Eigenvalues ---    0.18007   0.18313   0.21048   0.23451   0.27216
     Eigenvalues ---    0.30837   0.32133   0.33782   0.34637   0.35172
     Eigenvalues ---    0.35476   0.35763   0.37202   0.37391   0.37411
     Eigenvalues ---    0.39497   0.42233   0.44668   0.46935   0.48146
     Eigenvalues ---    0.49876   0.52793   0.58963   0.82193   0.90583
     Eigenvalues ---    1.13100   1.51800   2.03375   2.23033  16.17600
 Eigenvectors required to have negative eigenvalues:
                          A17       D11       A12       D8        R16
   1                    0.60532   0.46192   0.28026  -0.22498  -0.21247
                          A16       A11       A8        A14       R17
   1                    0.20200   0.17875  -0.17837   0.15229  -0.13525
 RFO step:  Lambda0=2.209837159D-06 Lambda=-1.65044213D-05.
 Linear search not attempted -- option 19 set.
 Variable       Old X    -DE/DX   Delta X   Delta X   Delta X     New X
                                 (Linear)    (Quad)   (Total)
    R2        1.90279   0.00009   0.00000   0.00022   0.00022   1.90302
    R3        2.62042   0.00176   0.00000  -0.00036  -0.00036   2.62006
    R4        2.56624   0.00178   0.00000  -0.00002  -0.00002   2.56622
    R5        2.03490   0.00001   0.00000   0.00002   0.00002   2.03492
    R6        2.56860  -0.00050   0.00000   0.00030   0.00030   2.56890
    R7        2.67208  -0.00035   0.00000  -0.00028  -0.00028   2.67180
    R8        2.68486   0.00004   0.00000   0.00038   0.00038   2.68524
    R9        2.03465   0.00002   0.00000  -0.00001  -0.00001   2.03464
   R10        2.04423  -0.00001   0.00000   0.00003   0.00003   2.04427
   R11        2.04530   0.00005   0.00000  -0.00013  -0.00013   2.04517
   R12        2.57625  -0.00014   0.00000  -0.00066  -0.00066   2.57560
   R13        2.04897   0.00001   0.00000  -0.00000  -0.00000   2.04897
   R14        2.68876   0.00012   0.00000   0.00091   0.00091   2.68966
   R15        2.05321   0.00004   0.00000   0.00016   0.00016   2.05337
   R16        2.58976   0.00000   0.00000  -0.00075  -0.00075   2.58901
   R17        2.23229   0.00048   0.00000   0.00020   0.00020   2.23249
    A3        2.18986  -0.00916   0.00000  -0.00036  -0.00036   2.18950
    A4        2.16712  -0.00924   0.00000  -0.00107  -0.00107   2.16606
    A5        2.10530  -0.00001   0.00000  -0.00001  -0.00001   2.10528
    A6        1.89304   0.00518   0.00000   0.00004   0.00004   1.89308
    A7        1.86998   0.00545   0.00000   0.00025   0.00025   1.87023
    A8        2.20693  -0.00012   0.00000  -0.00083  -0.00083   2.20610
    A9        2.19598  -0.00025   0.00000  -0.00031  -0.00031   2.19566
   A10        2.10725  -0.00001   0.00000  -0.00064  -0.00064   2.10661
   A11        2.10501  -0.00017   0.00000   0.00067   0.00067   2.10568
   A12        2.06620  -0.00004   0.00000   0.00094   0.00094   2.06714
   A13        2.04791  -0.00004   0.00000   0.00011   0.00011   2.04802
   A14        2.22434  -0.00024   0.00000  -0.00005  -0.00005   2.22429
   A15        2.05684  -0.00006   0.00000  -0.00052  -0.00052   2.05632
   A16        2.24010  -0.00015   0.00000   0.00093   0.00093   2.24103
   A17        2.53665  -0.00026   0.00000   0.00130   0.00130   2.53794
    D4       -3.07652  -0.00065   0.00000   0.00078   0.00078  -3.07575
    D5        0.05252  -0.00012   0.00000  -0.00059  -0.00059   0.05194
    D6        3.14934  -0.00009   0.00000   0.00046   0.00046   3.14980
    D7        3.07801   0.00004   0.00000   0.00028   0.00028   3.07829
    D8       -2.99231   0.00025   0.00000  -0.00173  -0.00173  -2.99404
    D9       -3.11716   0.00001   0.00000   0.00045   0.00045  -3.11671
   D10       -0.50357   0.00046   0.00000   0.00151   0.00151  -0.50206
   D11        2.56011   0.00009   0.00000   0.00112   0.00112   2.56123
   D12        2.99267   0.00043   0.00000   0.00049   0.00049   2.99316
   D13       -3.05955   0.00041   0.00000   0.00002   0.00002  -3.05953
   D14        3.04834   0.00039   0.00000   0.00031   0.00031   3.04864
   D15       -2.85885   0.00018   0.00000   0.00067   0.00067  -2.85818
   D16        2.88790   0.00011   0.00000  -0.00106  -0.00106   2.88685
   D17        3.10164  -0.00007   0.00000  -0.00263  -0.00263   3.09902
         Item               Value     Threshold  Converged?
 Maximum Force            0.009237     0.000450     NO 
 RMS     Force            0.002281     0.000300     NO 
 Maximum Displacement     0.002627     0.001800     NO 
 RMS     Displacement     0.000758     0.001200     YES
 Predicted change in Energy=-7.147281D-06
 GradGradGradGradGradGradGradGradGradGradGradGradGradGradGradGradGradGrad

 ---------------------------------------------------------------------------------------------------
                            Z-MATRIX (ANGSTROMS AND DEGREES)
   CD    Cent   Atom    N1       Length/X        N2       Alpha/Y        N3        Beta/Z          J
 ---------------------------------------------------------------------------------------------------
      1      1  H 
      2      2  N        1   1.007033(     1)
      3      3  C        2   1.386474(     2)      1  125.449(    17)
      4      4  C        2   1.357987(     3)      1  124.106(    18)      3 -176.227(    32)      0
      5      5  H        3   1.076831(     4)      2  120.624(    19)      1    2.976(    33)      0
      6      6  C        3   1.359403(     5)      2  108.466(    20)      5  180.470(    34)      0
      7      7  C        4   1.413854(     6)      2  107.156(    21)      1  176.373(    35)      0
      8      8  C        4   1.420968(     7)      2  126.400(    22)      7 -171.546(    36)      0
      9      9  H        6   1.076687(     8)      3  125.802(    23)      2 -178.574(    37)      0
     10     10  H        8   1.081780(     9)      4  120.700(    24)      2  -28.766(    38)      0
     11     11  H        7   1.082256(    10)      4  120.647(    25)      2  146.748(    39)      0
     12     12  C        8   1.362948(    11)      4  118.439(    26)     10  171.495(    40)      0
     13     13  H       12   1.084269(    12)      8  117.343(    27)      4 -175.298(    41)      0
     14     14  C       12   1.423309(    13)      8  127.442(    28)     13  174.674(    42)      0
     15     15  H       14   1.086596(    14)     12  117.818(    29)      8 -163.762(    43)      0
     16     16  C       14   1.370046(    15)     12  128.402(    30)     15  165.404(    44)      0
     17     17  O       16   1.181383(    16)     14  145.414(    31)     12  177.561(    45)      0
 ---------------------------------------------------------------------------------------------------
                         Z-Matrix orientation:                         
 ---------------------------------------------------------------------
 Center     Atomic      Atomic             Coordinates (Angstroms)
 Number     Number       Type             X           Y           Z
 ---------------------------------------------------------------------
      1          1           0        0.000000    0.000000    0.000000
      2          7           0        0.000000    0.000000    1.007033
      3          6           0        1.129464    0.000000    1.811161
      4          6           0       -1.121981   -0.073983    1.768488
      5          1           0        2.113031    0.048104    1.375447
      6          6           0        0.733740   -0.077501    3.109380
      7          6           0       -0.706578   -0.132236    3.118684
      8          6           0       -2.449989   -0.258011    1.297662
      9          1           0        1.384240   -0.075104    3.967342
     10          1           0       -2.741425    0.091483    0.316251
     11          1           0       -1.303851    0.320150    3.899638
     12          6           0       -3.296662   -1.034938    2.030571
     13          1           0       -4.280093   -1.227471    1.616525
     14          6           0       -3.009757   -1.720527    3.244433
     15          1           0       -3.695002   -2.502911    3.559084
     16          6           0       -1.841644   -1.731042    3.960274
     17          8           0       -1.301783   -2.123600    4.935012
 ---------------------------------------------------------------------
                    Distance matrix (angstroms):
                    1          2          3          4          5
     1  H    0.000000
     2  N    1.007033   0.000000
     3  C    2.134477   1.386474   0.000000
     4  C    2.095678   1.357987   2.253064   0.000000
     5  H    2.521719   2.145447   1.076831   3.261087   0.000000
     6  C    3.195720   2.228059   1.359403   2.289477   2.219177
     7  C    3.200458   2.230653   2.257909   1.413854   3.319879
     8  C    2.784411   2.480621   3.625291   1.420968   4.573938
     9  H    4.202566   3.268821   2.172480   3.334082   2.695225
    10  H    2.761122   2.828596   4.150530   2.181507   4.968855
    11  H    4.124282   3.188995   3.222616   2.174906   4.256834
    12  C    4.007780   3.603708   4.550805   2.391937   5.555803
    13  H    4.736986   4.494148   5.550484   3.365605   6.523592
    14  C    4.748178   4.126113   4.706127   2.907442   5.732724
    15  H    5.708299   5.141067   5.709227   3.965647   6.708889
    16  C    4.698077   3.887131   4.054957   2.840366   5.048381
    17  O    5.527988   4.651165   4.492113   3.776258   5.389597
                    6          7          8          9         10
     6  C    0.000000
     7  C    1.441387   0.000000
     8  C    3.667566   2.524168   0.000000
     9  H    1.076687   2.257212   4.675678   0.000000
    10  H    4.461714   3.470488   1.081780   5.511744   0.000000
    11  H    2.221353   1.082256   2.901411   2.717838   3.867760
    12  C    4.280731   2.950830   1.362948   5.155891   2.125090
    13  H    5.356265   4.028155   2.095425   6.240109   2.407873
    14  C    4.090421   2.800556   2.498442   4.747339   3.453930
    15  H    5.069379   3.839887   3.421061   5.644433   4.261004
    16  C    3.176605   2.133736   3.103128   3.626088   4.172542
    17  O    3.415084   2.760226   4.246071   3.513893   5.320913
                   11         12         13         14         15
    11  H    0.000000
    12  C    3.049749   0.000000
    13  H    4.057802   1.084269   0.000000
    14  C    2.739302   1.423309   2.122956   0.000000
    15  H    3.715273   2.156379   2.396375   1.086596   0.000000
    16  C    2.121388   2.515033   3.419470   1.370046   2.047357
    17  O    2.654038   3.687886   4.548158   2.436740   2.786495
                   16         17
    16  C    0.000000
    17  O    1.181383   0.000000
 Symmetry turned off by external request.
 Stoichiometry    C8H7NO
 Framework group  C1[X(C8H7NO)]
 Deg. of freedom    45
 Full point group                 C1      NOp   1
 Rotational constants (GHZ):           2.1632855           1.3451941           0.8691612
 Standard basis: def2TZVP (5D, 7F)
 The following finite field(s) will be applied:
 An electric field of             -0.0030 -0.0006  0.0039
   352 basis functions,   566 primitive gaussians,   402 cartesian basis functions
    35 alpha electrons       35 beta electrons
       nuclear repulsion energy       478.8029658325 Hartrees.
 NAtoms=   17 NActive=   17 NUniq=   17 SFac= 1.00D+00 NAtFMM=   60 NAOKFM=F Big=F
 Integral buffers will be    131072 words long.
 Raffenetti 2 integral format.
 Two-electron integral symmetry is turned off.
 One-electron integrals computed using PRISM.
   1 Symmetry operations used in ECPInt.
 ECPInt:  NShTT=    9591 NPrTT=   29644 LenC2=    9325 LenP2D=   22685.
 LDataN:  DoStor=T MaxTD1= 6 Len=  172
 NBasis=   352 RedAO= T EigKep=  3.72D-05  NBF=   352
 NBsUse=   352 1.00D-06 EigRej= -1.00D+00 NBFU=   352
 The nuclear repulsion energy is now       480.6951754562 hartrees.
 Initial guess from the checkpoint file:  "checkpoint.chk"
 B after Tr=     0.003935   -0.004121    0.000574
         Rot=    0.999999    0.000246    0.000963    0.000409 Ang=   0.12 deg.
 Requested convergence on RMS density matrix=1.00D-08 within 128 cycles.
 Requested convergence on MAX density matrix=1.00D-06.
 Requested convergence on             energy=1.00D-06.
 No special actions if energy rises.
 SCF Done:  E(RB3LYP) =  -439.143784527     A.U. after   10 cycles
            NFock= 10  Conv=0.76D-08     -V/T= 2.0050
   1 Symmetry operations used in ECPInt.
 ECPInt:  NShTT=    9591 NPrTT=   29644 LenC2=    9325 LenP2D=   22685.
 LDataN:  DoStor=T MaxTD1= 7 Len=  274
 Calling FoFJK, ICntrl=      2127 FMM=F ISym2X=0 I1Cent= 0 IOpClX= 0 NMat=1 NMatS=1 NMatT=0.
 -------------------------------------------------------------------
 Center     Atomic                   Forces (Hartrees/Bohr)
 Number     Number              X              Y              Z
 -------------------------------------------------------------------
      1        1           0.001596030   -0.001383437    0.000001608
      2        7          -0.001589405    0.001970270   -0.000037779
      3        6          -0.000013241   -0.000771007    0.000025896
      4        6          -0.000004314    0.000161905    0.000007891
      5        1          -0.000000782    0.000020517    0.000000503
      6        6          -0.000072695    0.000021947   -0.000013360
      7        6           0.000082266   -0.000032026    0.000011337
      8        6           0.000016760    0.000016569   -0.000005391
      9        1          -0.000004001   -0.000001540    0.000001440
     10        1           0.000000734   -0.000004974   -0.000002004
     11        1           0.000003816    0.000007749    0.000000249
     12        6          -0.000006129   -0.000013379    0.000015524
     13        1           0.000000346   -0.000000824   -0.000000478
     14        6          -0.000022997   -0.000009711   -0.000011429
     15        1          -0.000002154    0.000002250    0.000001226
     16        6           0.000014912    0.000025553   -0.000006101
     17        8           0.000000854   -0.000009862    0.000010869
 -------------------------------------------------------------------
 Cartesian Forces:  Max     0.001970270 RMS     0.000475059
 -----------------------------------------------------------------------------------------------
                       Internal Coordinate Forces (Hartree/Bohr or radian)
  Cent   Atom   N1       Length/X         N2         Alpha/Y        N3         Beta/Z          J
 -----------------------------------------------------------------------------------------------
      1  H 
      2  N        1  -0.000002(     1)
      3  C        2  -0.000066(     2)      1   0.000374(    17)
      4  C        2  -0.000065(     3)      1   0.000373(    18)      3  -0.000324(    32)     0
      5  H        3  -0.000000(     4)      2  -0.000001(    19)      1  -0.000018(    33)     0
      6  C        3   0.000010(     5)      2  -0.000205(    20)      5  -0.000054(    34)     0
      7  C        4   0.000037(     6)      2  -0.000213(    21)      1  -0.000037(    35)     0
      8  C        4  -0.000004(     7)      2  -0.000017(    22)      7   0.000028(    36)     0
      9  H        6  -0.000001(     8)      3   0.000008(    23)      2  -0.000002(    37)     0
     10  H        8   0.000000(     9)      4   0.000001(    24)      2   0.000043(    38)     0
     11  H        7   0.000001(    10)      4   0.000001(    25)      2  -0.000015(    39)     0
     12  C        8   0.000018(    11)      4   0.000009(    26)     10   0.000033(    40)     0
     13  H       12   0.000000(    12)      8  -0.000000(    27)      4   0.000034(    41)     0
     14  C       12  -0.000010(    13)      8   0.000000(    28)     13   0.000032(    42)     0
     15  H       14   0.000000(    14)     12  -0.000001(    29)      8   0.000013(    43)     0
     16  C       14   0.000016(    15)     12  -0.000018(    30)     15   0.000019(    44)     0
     17  O       16   0.000013(    16)     14  -0.000015(    31)     12   0.000004(    45)     0
 -----------------------------------------------------------------------------------------------
 Internal  Forces:  Max     0.000374381 RMS     0.000104865

 GradGradGradGradGradGradGradGradGradGradGradGradGradGradGradGradGradGrad
 Berny optimization.
 Search for a saddle point.
 Step number   3 out of a maximum of   55
 All quantities printed in internal units (Hartrees-Bohrs-Radians)
 Swapping is turned off.
 Update second derivatives using D2CorN and points    1    2    3
 ITU=  0  0  0
     Eigenvalues ---   -0.22729   0.00483   0.01783   0.01966   0.03004
     Eigenvalues ---    0.03446   0.04838   0.04955   0.06030   0.10015
     Eigenvalues ---    0.11168   0.11694   0.14670   0.16579   0.17043
     Eigenvalues ---    0.18005   0.18293   0.21049   0.23469   0.27199
     Eigenvalues ---    0.30810   0.32221   0.33947   0.34774   0.35217
     Eigenvalues ---    0.35555   0.35768   0.37206   0.37397   0.37427
     Eigenvalues ---    0.39528   0.42235   0.44673   0.46936   0.48145
     Eigenvalues ---    0.49877   0.52788   0.59010   0.82222   0.90584
     Eigenvalues ---    1.12997   1.51782   2.03380   2.22954  16.19917
 Eigenvectors required to have negative eigenvalues:
                          A17       D11       A12       D8        R16
   1                    0.60713   0.46525   0.28174  -0.21781  -0.21147
                          A16       A8        A11       A14       R17
   1                    0.20208  -0.17982   0.17715   0.15344  -0.13539
 RFO step:  Lambda0=1.446865003D-09 Lambda=-8.69815071D-06.
 Linear search not attempted -- option 19 set.
 Variable       Old X    -DE/DX   Delta X   Delta X   Delta X     New X
                                 (Linear)    (Quad)   (Total)
    R2        1.90302  -0.00000   0.00000  -0.00002  -0.00002   1.90300
    R3        2.62006  -0.00007   0.00000  -0.00029  -0.00029   2.61976
    R4        2.56622  -0.00007   0.00000  -0.00016  -0.00016   2.56607
    R5        2.03492  -0.00000   0.00000   0.00001   0.00001   2.03492
    R6        2.56890   0.00001   0.00000   0.00020   0.00020   2.56910
    R7        2.67180   0.00004   0.00000   0.00014   0.00014   2.67194
    R8        2.68524  -0.00000   0.00000  -0.00057  -0.00057   2.68467
    R9        2.03464  -0.00000   0.00000  -0.00001  -0.00001   2.03463
   R10        2.04427   0.00000   0.00000   0.00004   0.00004   2.04430
   R11        2.04517   0.00000   0.00000   0.00002   0.00002   2.04518
   R12        2.57560   0.00002   0.00000   0.00014   0.00014   2.57573
   R13        2.04897   0.00000   0.00000  -0.00003  -0.00003   2.04894
   R14        2.68966  -0.00001   0.00000   0.00018   0.00018   2.68984
   R15        2.05337   0.00000   0.00000   0.00017   0.00017   2.05354
   R16        2.58901   0.00002   0.00000   0.00043   0.00043   2.58944
   R17        2.23249   0.00001   0.00000   0.00043   0.00043   2.23292
    A3        2.18950   0.00037   0.00000   0.00173   0.00173   2.19123
    A4        2.16606   0.00037   0.00000   0.00028   0.00028   2.16634
    A5        2.10528  -0.00000   0.00000   0.00011   0.00011   2.10539
    A6        1.89308  -0.00020   0.00000  -0.00004  -0.00004   1.89304
    A7        1.87023  -0.00021   0.00000   0.00014   0.00014   1.87037
    A8        2.20610  -0.00002   0.00000   0.00074   0.00074   2.20684
    A9        2.19566   0.00001   0.00000  -0.00032  -0.00032   2.19534
   A10        2.10661   0.00000   0.00000  -0.00026  -0.00026   2.10634
   A11        2.10568   0.00000   0.00000  -0.00059  -0.00059   2.10508
   A12        2.06714   0.00001   0.00000  -0.00024  -0.00024   2.06691
   A13        2.04802  -0.00000   0.00000   0.00038   0.00038   2.04839
   A14        2.22429   0.00000   0.00000  -0.00054  -0.00054   2.22375
   A15        2.05632  -0.00000   0.00000  -0.00093  -0.00093   2.05539
   A16        2.24103  -0.00002   0.00000   0.00037   0.00037   2.24140
   A17        2.53794  -0.00002   0.00000  -0.00125  -0.00125   2.53670
    D4       -3.07575  -0.00032   0.00000  -0.02576  -0.02576  -3.10151
    D5        0.05194  -0.00002   0.00000  -0.02180  -0.02180   0.03013
    D6        3.14980  -0.00005   0.00000   0.00294   0.00294   3.15274
    D7        3.07829  -0.00004   0.00000   0.01910   0.01910   3.09740
    D8       -2.99404   0.00003   0.00000  -0.00364  -0.00364  -2.99767
    D9       -3.11671  -0.00000   0.00000  -0.00117  -0.00117  -3.11788
   D10       -0.50206   0.00004   0.00000   0.00635   0.00635  -0.49571
   D11        2.56123  -0.00002   0.00000  -0.00056  -0.00056   2.56067
   D12        2.99316   0.00003   0.00000  -0.00226  -0.00226   2.99090
   D13       -3.05953   0.00003   0.00000  -0.00017  -0.00017  -3.05970
   D14        3.04864   0.00003   0.00000  -0.00054  -0.00054   3.04810
   D15       -2.85818   0.00001   0.00000   0.00398   0.00398  -2.85420
   D16        2.88685   0.00002   0.00000  -0.00273  -0.00273   2.88411
   D17        3.09902   0.00000   0.00000  -0.00675  -0.00675   3.09227
         Item               Value     Threshold  Converged?
 Maximum Force            0.000374     0.000450     YES
 RMS     Force            0.000105     0.000300     YES
 Maximum Displacement     0.025762     0.001800     NO 
 RMS     Displacement     0.006056     0.001200     NO 
 Predicted change in Energy=-4.355541D-06
 GradGradGradGradGradGradGradGradGradGradGradGradGradGradGradGradGradGrad

 ---------------------------------------------------------------------------------------------------
                            Z-MATRIX (ANGSTROMS AND DEGREES)
   CD    Cent   Atom    N1       Length/X        N2       Alpha/Y        N3        Beta/Z          J
 ---------------------------------------------------------------------------------------------------
      1      1  H 
      2      2  N        1   1.007022(     1)
      3      3  C        2   1.386320(     2)      1  125.548(    17)
      4      4  C        2   1.357904(     3)      1  124.122(    18)      3 -177.703(    32)      0
      5      5  H        3   1.076834(     4)      2  120.630(    19)      1    1.726(    33)      0
      6      6  C        3   1.359509(     5)      2  108.463(    20)      5  180.639(    34)      0
      7      7  C        4   1.413928(     6)      2  107.164(    21)      1  177.468(    35)      0
      8      8  C        4   1.420666(     7)      2  126.443(    22)      7 -171.754(    36)      0
      9      9  H        6   1.076679(     8)      3  125.784(    23)      2 -178.641(    37)      0
     10     10  H        8   1.081799(     9)      4  120.685(    24)      2  -28.402(    38)      0
     11     11  H        7   1.082265(    10)      4  120.612(    25)      2  146.715(    39)      0
     12     12  C        8   1.363020(    11)      4  118.425(    26)     10  171.366(    40)      0
     13     13  H       12   1.084251(    12)      8  117.364(    27)      4 -175.308(    41)      0
     14     14  C       12   1.423403(    13)      8  127.411(    28)     13  174.643(    42)      0
     15     15  H       14   1.086685(    14)     12  117.765(    29)      8 -163.534(    43)      0
     16     16  C       14   1.370272(    15)     12  128.423(    30)     15  165.248(    44)      0
     17     17  O       16   1.181609(    16)     14  145.342(    31)     12  177.174(    45)      0
 ---------------------------------------------------------------------------------------------------
                         Z-Matrix orientation:                         
 ---------------------------------------------------------------------
 Center     Atomic      Atomic             Coordinates (Angstroms)
 Number     Number       Type             X           Y           Z
 ---------------------------------------------------------------------
      1          1           0        0.000000    0.000000    0.000000
      2          7           0        0.000000    0.000000    1.007022
      3          6           0        1.127948    0.000000    1.813009
      4          6           0       -1.123230   -0.045046    1.768749
      5          1           0        2.112797    0.027916    1.378422
      6          6           0        0.729186   -0.053221    3.111631
      7          6           0       -0.709512   -0.088191    3.120107
      8          6           0       -2.454126   -0.212290    1.300735
      9          1           0        1.378552   -0.045759    3.970413
     10          1           0       -2.738260    0.124310    0.312677
     11          1           0       -1.300521    0.386062    3.892823
     12          6           0       -3.314843   -0.961164    2.046506
     13          1           0       -4.301859   -1.142591    1.636036
     14          6           0       -3.039398   -1.631902    3.271381
     15          1           0       -3.737270   -2.398739    3.596682
     16          6           0       -1.871376   -1.651444    3.987612
     17          8           0       -1.340807   -2.034643    4.971408
 ---------------------------------------------------------------------
                    Distance matrix (angstroms):
                    1          2          3          4          5
     1  H    0.000000
     2  N    1.007022   0.000000
     3  C    2.135244   1.386320   0.000000
     4  C    2.095745   1.357904   2.252064   0.000000
     5  H    2.522843   2.145374   1.076834   3.260298   0.000000
     6  C    3.196372   2.227987   1.359509   2.287978   2.219229
     7  C    3.200977   2.230765   2.256666   1.413928   3.318490
     8  C    2.785626   2.480740   3.624741   1.420666   4.573895
     9  H    4.203175   3.268667   2.172392   3.332602   2.694988
    10  H    2.758857   2.827656   4.148978   2.181089   4.967681
    11  H    4.122435   3.188769   3.220580   2.174621   4.254553
    12  C    4.012507   3.604518   4.551567   2.391567   5.557328
    13  H    4.742164   4.495238   5.551544   3.365398   6.525662
    14  C    4.754259   4.126544   4.707094   2.906495   5.734405
    15  H    5.714653   5.140766   5.710148   3.964141   6.710634
    16  C    4.704292   3.887574   4.056120   2.839646   5.049926
    17  O    5.536464   4.653374   4.495554   3.776621   5.393614
                    6          7          8          9         10
     6  C    0.000000
     7  C    1.439147   0.000000
     8  C    3.665805   2.523727   0.000000
     9  H    1.076679   2.254957   4.673793   0.000000
    10  H    4.459691   3.470250   1.081799   5.509637   0.000000
    11  H    2.218770   1.082265   2.899612   2.714760   3.866918
    12  C    4.279372   2.949992   1.363020   5.154352   2.125292
    13  H    5.354953   4.027305   2.095711   6.238544   2.408559
    14  C    4.089007   2.798982   2.498257   4.745817   3.453822
    15  H    5.068131   3.838368   3.420291   5.643387   4.260104
    16  C    3.175623   2.132194   3.103236   3.624990   4.172521
    17  O    3.416090   2.759443   4.246681   3.514621   5.321440
                   11         12         13         14         15
    11  H    0.000000
    12  C    3.046539   0.000000
    13  H    4.054368   1.084251   0.000000
    14  C    2.735336   1.423403   2.123107   0.000000
    15  H    3.712218   2.155948   2.395997   1.086685   0.000000
    16  C    2.118087   2.515547   3.419954   1.370272   2.047641
    17  O    2.650430   3.688391   4.548439   2.436701   2.786660
                   16         17
    16  C    0.000000
    17  O    1.181609   0.000000
 Symmetry turned off by external request.
 Stoichiometry    C8H7NO
 Framework group  C1[X(C8H7NO)]
 Deg. of freedom    45
 Full point group                 C1      NOp   1
 Rotational constants (GHZ):           2.1648510           1.3448845           0.8688937
 Standard basis: def2TZVP (5D, 7F)
 The following finite field(s) will be applied:
 An electric field of             -0.0030 -0.0006  0.0039
   352 basis functions,   566 primitive gaussians,   402 cartesian basis functions
    35 alpha electrons       35 beta electrons
       nuclear repulsion energy       478.8527662612 Hartrees.
 NAtoms=   17 NActive=   17 NUniq=   17 SFac= 1.00D+00 NAtFMM=   60 NAOKFM=F Big=F
 Integral buffers will be    131072 words long.
 Raffenetti 2 integral format.
 Two-electron integral symmetry is turned off.
 One-electron integrals computed using PRISM.
   1 Symmetry operations used in ECPInt.
 ECPInt:  NShTT=    9591 NPrTT=   29644 LenC2=    9325 LenP2D=   22688.
 LDataN:  DoStor=T MaxTD1= 6 Len=  172
 NBasis=   352 RedAO= T EigKep=  3.74D-05  NBF=   352
 NBsUse=   352 1.00D-06 EigRej= -1.00D+00 NBFU=   352
 The nuclear repulsion energy is now       480.7523849716 hartrees.
 Initial guess from the checkpoint file:  "checkpoint.chk"
 B after Tr=     0.000020   -0.028588    0.002297
         Rot=    0.999933    0.008274    0.000401    0.008080 Ang=   1.33 deg.
 ExpMin= 9.52D-02 ExpMax= 2.70D+04 ExpMxC= 9.22D+02 IAcc=2 IRadAn=         4 AccDes= 0.00D+00
 Harris functional with IExCor=  402 and IRadAn=       4 diagonalized for initial guess.
 HarFok:  IExCor=  402 AccDes= 0.00D+00 IRadAn=         4 IDoV= 1 UseB2=F ITyADJ=14
 ICtDFT=  3500011 ScaDFX=  1.000000  1.000000  1.000000  1.000000
 FoFCou: FMM=F IPFlag=           0 FMFlag=      100000 FMFlg1=           0
         NFxFlg=           0 DoJE=T BraDBF=F KetDBF=T FulRan=T
         wScrn=  0.000000 ICntrl=       500 IOpCl=  0 I1Cent=   200000004 NGrid=           0
         NMat0=    1 NMatS0=      1 NMatT0=    0 NMatD0=    1 NMtDS0=    0 NMtDT0=    0
 Symmetry not used in FoFCou.
 Requested convergence on RMS density matrix=1.00D-08 within 128 cycles.
 Requested convergence on MAX density matrix=1.00D-06.
 Requested convergence on             energy=1.00D-06.
 No special actions if energy rises.
 Integral accuracy reduced to 1.0D-05 until final iterations.
 Initial convergence to 1.0D-05 achieved.  Increase integral accuracy.
 SCF Done:  E(RB3LYP) =  -439.143780873     A.U. after   11 cycles
            NFock= 11  Conv=0.61D-08     -V/T= 2.0050
   1 Symmetry operations used in ECPInt.
 ECPInt:  NShTT=    9591 NPrTT=   29644 LenC2=    9325 LenP2D=   22688.
 LDataN:  DoStor=T MaxTD1= 7 Len=  274
 Calling FoFJK, ICntrl=      2127 FMM=F ISym2X=0 I1Cent= 0 IOpClX= 0 NMat=1 NMatS=1 NMatT=0.
 -------------------------------------------------------------------
 Center     Atomic                   Forces (Hartrees/Bohr)
 Number     Number              X              Y              Z
 -------------------------------------------------------------------
      1        1           0.001662026   -0.001664496    0.000026896
      2        7          -0.001646625    0.002473096    0.000159690
      3        6           0.000267463   -0.001022149   -0.000126023
      4        6          -0.000369040    0.000368284   -0.000133025
      5        1          -0.000000653    0.000072791    0.000006488
      6        6           0.001292451    0.000086899    0.000053702
      7        6          -0.001209728   -0.000159620    0.000044461
      8        6           0.000113353   -0.000122523   -0.000092465
      9        1           0.000050870   -0.000028707   -0.000010293
     10        1          -0.000065932    0.000062962    0.000044838
     11        1          -0.000064050    0.000049320   -0.000031036
     12        6           0.000108287   -0.000165725    0.000105995
     13        1           0.000007448   -0.000014024   -0.000014032
     14        6          -0.000126065   -0.000186390   -0.000180155
     15        1          -0.000028820    0.000097205    0.000088652
     16        6          -0.000003910    0.000392106    0.000229833
     17        8           0.000012926   -0.000239029   -0.000173525
 -------------------------------------------------------------------
 Cartesian Forces:  Max     0.002473096 RMS     0.000618178
 -----------------------------------------------------------------------------------------------
                       Internal Coordinate Forces (Hartree/Bohr or radian)
  Cent   Atom   N1       Length/X         N2         Alpha/Y        N3         Beta/Z          J
 -----------------------------------------------------------------------------------------------
      1  H 
      2  N        1  -0.000027(     1)
      3  C        2   0.001266(     2)      1  -0.006028(    17)
      4  C        2   0.001280(     3)      1  -0.005931(    18)      3  -0.000086(    32)     0
      5  H        3  -0.000001(     4)      2   0.000009(    19)      1   0.000078(    33)     0
      6  C        3  -0.000355(     5)      2   0.003426(    20)      5  -0.000050(    34)     0
      7  C        4  -0.000357(     6)      2   0.003398(    21)      1  -0.000021(    35)     0
      8  C        4   0.000001(     7)      2  -0.000009(    22)      7   0.000121(    36)     0
      9  H        6   0.000022(     8)      3  -0.000092(    23)      2  -0.000052(    37)     0
     10  H        8  -0.000004(     9)      4   0.000099(    24)      2  -0.000267(    38)     0
     11  H        7   0.000034(    10)      4  -0.000160(    25)      2  -0.000023(    39)     0
     12  C        8   0.000114(    11)      4   0.000156(    26)     10  -0.000110(    40)     0
     13  H       12   0.000001(    12)      8  -0.000012(    27)      4  -0.000050(    41)     0
     14  C       12  -0.000089(    13)      8   0.000237(    28)     13  -0.000087(    42)     0
     15  H       14  -0.000024(    14)     12   0.000083(    29)      8  -0.000107(    43)     0
     16  C       14   0.000035(    15)     12  -0.000017(    30)     15   0.000122(    44)     0
     17  O       16  -0.000061(    16)     14  -0.000102(    31)     12   0.000363(    45)     0
 -----------------------------------------------------------------------------------------------
 Internal  Forces:  Max     0.006027569 RMS     0.001481301

 GradGradGradGradGradGradGradGradGradGradGradGradGradGradGradGradGradGrad
 Berny optimization.
 Search for a saddle point.
 Step number   4 out of a maximum of   55
 All quantities printed in internal units (Hartrees-Bohrs-Radians)
 Swapping is turned off.
 Update second derivatives using D2CorN and points    1    2    3    4
 ITU=  0  0  0  0
     Eigenvalues ---   -0.22566   0.01040   0.01783   0.01970   0.03119
     Eigenvalues ---    0.03511   0.04831   0.04925   0.06029   0.10018
     Eigenvalues ---    0.11171   0.11699   0.14708   0.16579   0.17043
     Eigenvalues ---    0.18006   0.18297   0.21049   0.23470   0.27203
     Eigenvalues ---    0.30815   0.32221   0.33955   0.34776   0.35221
     Eigenvalues ---    0.35555   0.35770   0.37206   0.37397   0.37427
     Eigenvalues ---    0.39534   0.42237   0.44673   0.46936   0.48146
     Eigenvalues ---    0.49878   0.52789   0.59009   0.82235   0.90585
     Eigenvalues ---    1.12999   1.51781   2.03381   2.22957  16.19727
 Eigenvectors required to have negative eigenvalues:
                          A17       D11       A12       D8        R16
   1                    0.60863   0.46539   0.28171  -0.21472  -0.21159
                          A16       A8        A11       A14       R17
   1                    0.20146  -0.18008   0.17734   0.15433  -0.13605
 RFO step:  Lambda0=4.741482357D-07 Lambda=-1.49546103D-05.
 Linear search not attempted -- option 19 set.
 Variable       Old X    -DE/DX   Delta X   Delta X   Delta X     New X
                                 (Linear)    (Quad)   (Total)
    R2        1.90300  -0.00003   0.00000  -0.00001  -0.00001   1.90299
    R3        2.61976   0.00127   0.00000   0.00020   0.00020   2.61997
    R4        2.56607   0.00128   0.00000   0.00019   0.00019   2.56626
    R5        2.03492  -0.00000   0.00000  -0.00001  -0.00001   2.03491
    R6        2.56910  -0.00035   0.00000  -0.00015  -0.00015   2.56895
    R7        2.67194  -0.00036   0.00000  -0.00017  -0.00017   2.67177
    R8        2.68467   0.00000   0.00000   0.00060   0.00060   2.68527
    R9        2.03463   0.00002   0.00000   0.00001   0.00001   2.03464
   R10        2.04430  -0.00000   0.00000  -0.00004  -0.00004   2.04427
   R11        2.04518   0.00003   0.00000  -0.00002  -0.00002   2.04517
   R12        2.57573   0.00011   0.00000  -0.00017  -0.00017   2.57556
   R13        2.04894   0.00000   0.00000   0.00004   0.00004   2.04897
   R14        2.68984  -0.00009   0.00000  -0.00012  -0.00012   2.68972
   R15        2.05354  -0.00002   0.00000  -0.00016  -0.00016   2.05338
   R16        2.58944   0.00003   0.00000  -0.00042  -0.00042   2.58902
   R17        2.23292  -0.00006   0.00000  -0.00039  -0.00039   2.23253
    A3        2.19123  -0.00603   0.00000  -0.00129  -0.00129   2.18993
    A4        2.16634  -0.00593   0.00000  -0.00022  -0.00022   2.16612
    A5        2.10539   0.00001   0.00000  -0.00008  -0.00008   2.10531
    A6        1.89304   0.00343   0.00000   0.00002   0.00002   1.89307
    A7        1.87037   0.00340   0.00000  -0.00018  -0.00018   1.87019
    A8        2.20684  -0.00001   0.00000  -0.00067  -0.00067   2.20617
    A9        2.19534  -0.00009   0.00000   0.00030   0.00030   2.19563
   A10        2.10634   0.00010   0.00000   0.00038   0.00038   2.10672
   A11        2.10508  -0.00016   0.00000   0.00052   0.00052   2.10561
   A12        2.06691   0.00016   0.00000   0.00017   0.00017   2.06707
   A13        2.04839  -0.00001   0.00000  -0.00036  -0.00036   2.04803
   A14        2.22375   0.00024   0.00000   0.00051   0.00051   2.22426
   A15        2.05539   0.00008   0.00000   0.00092   0.00092   2.05631
   A16        2.24140  -0.00002   0.00000  -0.00035  -0.00035   2.24105
   A17        2.53670  -0.00010   0.00000   0.00115   0.00115   2.53785
    D4       -3.10151  -0.00009   0.00000   0.01147   0.01147  -3.09004
    D5        0.03013   0.00008   0.00000   0.00906   0.00906   0.03919
    D6        3.15274  -0.00005   0.00000  -0.00066  -0.00066   3.15208
    D7        3.09740  -0.00002   0.00000  -0.00881  -0.00881   3.08858
    D8       -2.99767   0.00012   0.00000   0.00360   0.00360  -2.99407
    D9       -3.11788  -0.00005   0.00000  -0.00046  -0.00046  -3.11834
[...]
   zz         0.133236D+03      0.197435D+02      0.219676D+02

 ----------------------------------------------------------------------
 1\1\GINC-BHC0107\Freq\RB3LYP\def2TZVP\C8H7N1O1\DHANAWAY\10-Jun-2022\1\
 \#N Geom=AllCheck Guess=TCheck SCRF=Check GenChk RB3LYP/def2TZVP Freq\
 \ts_zmat_initalOpt\\0,1\H\N,1,R2\C,2,R3,1,A3\C,2,R4,1,A4,3,D4,0\H,3,R5
 ,2,A5,1,D5,0\C,3,R6,2,A6,5,D6,0\C,4,R7,2,A7,1,D7,0\C,4,R8,2,A8,7,D8,0\
 H,6,R9,3,A9,2,D9,0\H,8,R10,4,A10,2,D10,0\H,7,R11,4,A11,2,D11,0\C,8,R12
 ,4,A12,10,D12,0\H,12,R13,8,A13,4,D13,0\C,12,R14,8,A14,13,D14,0\H,14,R1
 5,12,A15,8,D15,0\C,14,R16,12,A16,15,D16,0\O,16,R17,14,A17,12,D17,0\\R2
 =1.00701645\R3=1.38640936\R4=1.35799763\R5=1.07683006\R6=1.35943554\R7
 =1.41385132\R8=1.4209873\R9=1.07668418\R10=1.08178214\R11=1.08226292\R
 12=1.36292082\R13=1.08426872\R14=1.42334895\R15=1.08660268\R16=1.37005
 31\R17=1.18142548\A3=125.48413797\A4=124.11519405\A5=120.62757917\A6=1
 08.46296617\A7=107.15422594\A8=126.40187724\A9=125.79833165\A10=120.70
 22426\A11=120.6392813\A12=118.43649193\A13=117.34609328\A14=127.436680
 19\A15=117.81618755\A16=128.40451779\A17=145.40502826\D4=-177.17829048
 \D5=2.27865801\D6=180.49560898\D7=177.02422295\D8=-171.52700112\D9=-17
 8.64716021\D10=-28.82131315\D11=146.83754449\D12=171.51943392\D13=-175
 .32624055\D14=174.67744882\D15=-163.76340612\D16=165.41188853\D17=177.
 57261635\\Version=ES64L-G16RevA.03\HF=-439.1437874\RMSD=3.135e-09\RMSF
 =5.247e-04\ZeroPoint=0.1299829\Thermal=0.1375876\Dipole=0.7512136,0.75
 53218,-1.9756491\DipoleDeriv=0.1611884,-0.0005818,-0.0448346,-0.011320
 9,0.2984808,-0.0260171,-0.0622684,-0.0293065,0.2799165,-0.4734789,-0.2
 045715,0.1089781,-0.0353087,-0.1792074,0.0056931,0.3437292,0.0991742,-
 0.5261495,0.0069945,-0.0567703,0.2203982,-0.0119841,-0.1125327,-0.0184
 975,0.069994,0.0654008,0.1838141,0.5407416,0.1457525,-0.2259543,0.0870
 529,0.0225141,0.0501526,-0.3630597,-0.164903,0.4844469,0.0451884,-0.00
 41921,0.0147064,0.0089534,0.187592,0.010774,0.0257583,0.003202,0.07336
 59,-0.0125044,0.0492145,-0.0360608,-0.050441,-0.2512338,-0.0242205,0.0
 578824,-0.0127917,-0.0388351,-0.0384526,-0.1877409,0.2390319,-0.180705
 3,-0.325416,0.4209479,0.1724632,0.2535557,-0.5177746,-0.3365068,-0.086
 4656,0.1968856,-0.1337078,-0.3411582,0.0991634,0.056626,0.0129333,-0.1
 554007,0.0208696,-0.0197413,-0.0431433,0.009395,0.1567682,0.0122339,-0
 .0601507,-0.0036381,0.0308417,0.0273637,-0.0278174,-0.0273543,0.011711
 9,0.1397049,0.0599718,-0.0346003,0.077901,-0.0274751,0.0402184,0.03015
 47,0.0168934,0.0821741,0.1755163,-0.129349,0.0183122,-0.0158553,0.0829
 192,0.1322668,0.0658954,0.0420789,0.1238271,0.1891543,-0.3923633,-0.23
 86267,-0.4188783,0.4801134,-0.0916141,-0.0388638,-0.0736743,-0.0237575
 ,0.1025363,0.008,-0.0524088,0.0075361,0.0727087,-0.4025969,0.2979993,-
 0.412625,-0.078526,-0.3165877,0.0620759,0.2092585,0.3131701,-0.7635479
 ,-0.0513007,-0.1476883,0.0500737,-0.0955199,0.030212,0.1074441,-0.0234
 284,0.074172,0.0789474,0.8573157,-0.0954718,0.5410325,0.3676351,0.8967
 125,-0.8500108,0.0534206,-1.1729006,1.9561076,-0.4256927,0.2808884,-0.
 5664322,-0.0694782,-0.6730556,0.6040016,-0.1729015,0.9112283,-1.693998
 5\Polar=131.5172914,20.4146847,79.0972872,-2.9229982,-24.6155116,114.4
 173123\PG=C01 [X(C8H7N1O1)]\NImag=1\\0.06159836,0.00135288,0.01220302,
 -0.00142609,0.00028233,0.46831348,-0.07495582,-0.00442896,-0.00066670,
 0.60620786,-0.00249240,-0.00716433,0.00017894,0.02134178,0.08222354,-0
 .00075565,-0.00067344,-0.45150618,-0.01049414,-0.00913989,0.93594240,0
 .01196863,0.00110628,0.00423497,-0.22001243,-0.00185067,-0.07785923,0.
 76520197,0.00002229,-0.00679701,-0.00002588,0.00257273,-0.04913200,0.0
 0021246,0.02076170,0.12090638,-0.02459644,0.00106973,-0.00755259,-0.06
 289581,-0.00216159,-0.16801089,-0.15703155,-0.02614310,0.68714787,0.01
 057332,0.00186450,-0.00200909,-0.24154536,-0.00212660,0.08273265,-0.09
 041064,-0.00261974,-0.01532598,0.75763436,0.00077177,-0.00443503,0.000
 11733,-0.01311998,-0.06142748,0.00614250,-0.00228795,0.01138542,0.0022
 5341,0.05194923,0.17771246,0.02801864,0.00072278,-0.01144544,0.0843946
 0,0.00955024,-0.19286447,0.01566571,0.00289716,0.01756787,0.05102653,-
 0.01176656,0.61361114,0.00004729,0.00009527,-0.00011133,-0.01784934,-0
 .00036472,0.01136416,-0.30533281,-0.01015348,0.10899048,-0.00076260,-0
 .00018935,-0.00375394,0.32212277,0.00003995,-0.00105632,-0.00008751,-0
 .00040760,-0.00208628,-0.00007923,-0.01003644,-0.02797511,0.00572353,0
 .00076736,0.00201533,-0.00036208,0.01060162,0.02122399,0.00077681,-0.0
 0003944,0.00056853,-0.02387665,-0.00073123,0.01257049,0.11822769,0.006
 42594,-0.11248841,-0.00267320,0.00002735,-0.00429243,-0.11729910,-0.00
 622565,0.10531356,-0.00570336,0.00119552,-0.00199801,0.00081149,-0.000
 82279,-0.01330968,-0.13278100,-0.00818011,0.07777001,-0.03066068,0.000
 00126,-0.04405282,0.00163935,-0.00133160,0.02373047,0.59496407,0.00006
 680,0.00186187,-0.00015641,0.00186935,0.01390930,0.00253090,-0.0069987
 1,-0.06472845,0.01381916,-0.00036942,0.00912561,-0.00094331,0.00011435
 ,0.00290676,0.00079987,0.00950132,0.12272756,-0.00438159,-0.00080530,0
 .00070236,-0.05059456,0.00290623,-0.07788791,0.09637987,0.01526086,-0.
 38310691,-0.01833162,-0.00082800,-0.01436699,-0.00058759,0.00030242,0.
 00161732,0.10773160,-0.01239561,0.81794578,-0.00595356,-0.00166059,0.0
 0220465,-0.02135892,-0.00178712,0.01095139,-0.02988961,-0.00030322,0.0
 7306869,-0.11314160,0.00893130,-0.07706347,0.00070693,0.00059542,0.001
 53888,-0.23969366,-0.00653942,-0.01438472,0.55968196,-0.00021719,0.005
 06754,-0.00106091,-0.01500724,0.01373187,0.00024020,0.00194933,0.01284
 580,0.01868760,-0.01010532,-0.06924584,-0.03068109,0.00035462,0.006817
 52,-0.00003302,0.01915111,-0.06182586,-0.01189320,-0.09921343,0.147237
 15,0.00389934,-0.00001098,0.00067825,0.04631791,0.00176283,-0.06820072
 ,0.01973420,0.00234945,-0.02155155,-0.04306060,0.00095203,-0.25955916,
 0.00004389,0.00103702,-0.00497616,-0.01116563,-0.00403983,-0.09353803,
 -0.06166389,0.11474436,0.65116681,0.00160266,-0.00007081,-0.00122256,-
 0.04787892,-0.01313248,0.00525652,0.00591921,-0.00154765,0.00342237,-0
 .24186250,-0.01904996,-0.05248399,-0.00060239,-0.00024749,-0.00082108,
 -0.00268243,0.00032881,-0.00226825,-0.00229767,0.02073716,-0.02953523,
 0.59449189,0.00021581,-0.00275810,-0.00097078,-0.00331498,-0.00008924,
 0.00311835,-0.00169350,0.00223365,-0.00603121,-0.01518629,-0.05881804,
 0.01282384,-0.00029894,0.00162161,-0.00024630,-0.00523656,0.00250331,0
 .00281608,0.00815670,0.01566966,-0.00968733,0.14381875,0.27343495,-0.0
 0056539,-0.00048017,0.00146445,0.02532326,0.00059360,0.01845973,0.0035
 7331,0.00069732,-0.00338964,-0.08268722,0.00259371,-0.13889479,0.00094
 975,-0.00003388,0.00123301,0.00101072,-0.00000760,-0.00608643,-0.03235
 117,-0.00457473,-0.00159922,0.04200380,-0.23391190,0.62368769,0.000834
 73,-0.00008145,0.00029165,0.00031340,-0.00035403,0.00375346,0.01059887
 ,0.00021802,0.00870002,-0.00597731,-0.00034961,0.00158583,-0.00003459,
 0.00015827,-0.00078603,-0.16570357,-0.00215545,-0.14514319,-0.00669568
 ,-0.00004333,-0.02266135,0.00026536,0.00016236,-0.00136555,0.16573785,
 0.00012214,0.00194957,0.00015341,-0.00130631,0.00570707,0.00023551,0.0
 0090116,0.00032202,0.00224196,0.00001318,0.00266554,-0.00034895,0.0000
 5796,-0.00366931,-0.00009997,0.00038940,-0.02730087,-0.00143502,-0.002
 59325,-0.00234333,-0.00146651,0.00014175,0.00127434,-0.00037092,0.0020
 7494,0.02144849,-0.00111663,0.00016333,-0.00003669,0.00174488,0.000197
 50,-0.00469714,-0.01961120,-0.00069392,-0.01187049,0.00235044,0.000394
 96,-0.00029592,0.00044051,-0.00004120,0.00049684,-0.14168192,-0.000522
 99,-0.24749314,0.00305518,-0.00006283,0.00759417,-0.00009250,0.0000233
 0,0.00041925,0.15544548,0.00060946,0.25596835,-0.00081314,0.00024494,0
 .00019224,0.00278278,-0.00044787,0.00119064,-0.00062300,0.00001367,-0.
 00104134,-0.00127095,0.00946451,-0.02608303,0.00000050,-0.00005768,0.0
 0003182,-0.00096919,-0.00014596,-0.00113037,-0.00307109,0.00093980,-0.
 00071933,-0.07871354,0.01652278,-0.07365155,-0.00038516,-0.00021190,0.
 00013761,0.07573634,0.00034641,0.00037952,0.00042039,0.00130572,-0.000
 65857,-0.00138196,-0.00009495,-0.00027705,0.00025738,-0.00790156,0.001
 71039,-0.00940973,0.00001561,-0.00001670,0.00002098,0.00028531,0.00010
 499,-0.00053696,-0.00266470,-0.00000401,0.00219500,0.02342633,-0.05592
 057,0.08960783,-0.00018177,0.00008237,-0.00002937,-0.01593083,0.059360
 49,-0.00057230,0.00024834,0.00003373,0.00085973,-0.00046524,0.00026355
 ,-0.00078425,-0.00022711,-0.00021677,-0.00350395,0.00164729,-0.0080680
 3,-0.00000137,0.00003128,0.00000638,0.00014539,-0.00009747,-0.00021199
 ,-0.00163092,0.00015681,0.00226122,-0.06925667,0.09330763,-0.28396815,
 -0.00014524,0.00004551,0.00007425,0.07887698,-0.09995569,0.30002084,0.
 00054293,0.00107091,0.00002278,0.00208215,0.00214682,-0.00367282,-0.00
 727662,-0.00022666,-0.00216225,0.00779845,-0.00639641,-0.00226383,0.00
 014554,-0.00104353,0.00123767,-0.00980741,0.01136601,0.02330947,-0.130
 67778,0.07137537,0.10532259,-0.00086054,-0.00138822,0.00041463,0.00067
 263,-0.00098360,-0.00065272,-0.00013090,0.00035450,0.00016413,0.138261
 99,-0.00026318,0.00119390,0.00082608,0.00636181,0.00176422,0.00170073,
 -0.00285899,0.00175414,-0.00692599,0.00113090,-0.00150709,0.01563512,-
 0.00020905,0.00060756,0.00041657,-0.00953653,-0.00080910,0.00637663,0.
 08844511,-0.06561205,-0.11622187,-0.00473195,-0.00512721,0.00160858,0.
 00018998,-0.00085915,-0.00012629,-0.00037039,0.00041588,0.00022869,-0.
 07252800,0.08480142,0.00099644,0.00042044,-0.00041713,-0.00405250,0.00
 007228,-0.00523624,-0.00066223,-0.00157420,0.00282918,0.01717188,-0.01
 149910,-0.01606425,0.00010268,-0.00042913,0.00016264,0.00092159,0.0028
 1808,0.00293847,0.10438302,-0.09582409,-0.19142067,0.00113415,0.002871
 03,-0.00049252,0.00058221,0.00050460,-0.00009094,-0.00015214,0.0001424
 9,0.00003709,-0.12203882,0.09899791,0.20793218,-0.00000859,-0.00014547
 ,0.00016600,0.00647083,0.00113395,-0.00649950,-0.00488910,0.00015450,-
 0.00385057,-0.05166847,-0.02331209,0.01161491,-0.00015163,0.00000215,-
 0.00027993,-0.00280578,0.00065079,0.00321140,0.00354518,-0.00237026,0.
 00344464,-0.21883573,-0.12619939,0.11037208,-0.00000246,0.00026897,0.0
 0002083,0.00889714,0.00237842,-0.00648933,-0.00017924,-0.00088260,0.00
 071296,0.64432767,-0.00075653,-0.00015880,0.00040580,0.00429925,0.0047
 2945,-0.00323515,-0.00082735,0.00142771,0.00403146,-0.03067924,-0.0059
 2756,-0.01214096,0.00026023,0.00013484,0.00030369,0.00538736,-0.000412
 71,0.00014407,-0.00398721,-0.01374177,0.01091052,-0.11583239,-0.157521
 42,0.11979444,0.00023139,-0.00035973,-0.00004846,-0.00589758,-0.007384
 52,0.00354580,-0.00010099,0.00320095,-0.00067555,0.18333146,0.34337112
 ,0.00028362,-0.00060907,-0.00120181,-0.00765675,-0.00259603,0.00594248
 ,0.00015825,-0.00084129,-0.00711809,0.03485075,0.00154290,0.03766203,-
 0.00048929,-0.00034587,-0.00066768,-0.00977885,0.00092390,0.00073548,0
 .01059796,0.02269000,-0.01892869,0.06333319,0.08877141,-0.19069410,-0.
 00024679,0.00050173,0.00011430,0.01914923,0.01950107,-0.01168392,-0.00
 119098,-0.00731727,0.00133930,0.05196312,-0.21368249,0.50922999,-0.000
 00101,-0.00009934,-0.00008450,-0.00001725,-0.00037308,-0.00030703,-0.0
 0029908,0.00018391,-0.00018330,0.00032035,-0.00398038,0.00165277,-0.00
 002985,0.00021020,-0.00002555,-0.00030485,-0.00019811,0.00017514,0.000
 41439,0.00067618,-0.00037571,-0.01660233,-0.00419549,-0.00857870,-0.00
 001579,0.00000913,-0.00000375,0.00028309,0.00199462,0.00097827,-0.0000
 6284,-0.00011166,0.00004931,-0.27904008,-0.04726955,-0.09986828,0.2976
 2264,-0.00001601,0.00012702,-0.00000281,-0.00195817,0.00017123,-0.0017
 3799,-0.00002158,-0.00017019,0.00131972,-0.00480604,0.00419629,0.00605
 134,-0.00010091,-0.00016891,-0.00011951,0.00069917,0.00014434,-0.00048
 844,-0.00028307,-0.00111886,0.00108732,-0.01711753,0.00187908,-0.00795
 076,-0.00000924,-0.00006715,-0.00001492,0.00210308,-0.00376652,-0.0021
 8251,0.00015384,0.00031914,-0.00022179,-0.04873333,-0.05588977,-0.0082
 8418,0.05573438,0.04770809,-0.00001032,0.00013254,0.00002193,-0.000544
 36,-0.00005242,0.00010112,0.00028141,-0.00022923,0.00061576,0.00074452
 ,0.00488519,0.00033963,0.00001767,-0.00015044,0.00000855,0.00058147,0.
 00003507,-0.00028435,-0.00034263,-0.00063847,0.00077240,0.01614571,0.0
 0509617,0.00856611,0.00000329,-0.00003449,-0.00000538,0.00103343,-0.00
 257026,-0.00010334,0.00018635,0.00036279,-0.00012596,-0.10019392,-0.01
 160911,-0.09135548,0.10733395,0.00471800,0.09478891,-0.00065248,0.0004
 4958,0.00048395,-0.00139105,0.00229021,-0.00390917,-0.00078327,0.00101
 914,0.00932277,-0.02304270,-0.00442991,-0.01913896,0.00028760,0.000704
 12,0.00045875,0.01127694,-0.00225363,-0.00144567,-0.02012431,-0.027015
 86,0.01868365,0.03456234,0.01146232,0.00726446,0.00023543,-0.00046793,
 -0.00020510,0.00053088,-0.00539034,0.00070502,-0.00130307,0.00686209,-
 0.00165244,-0.10015996,-0.02211809,-0.00648937,-0.00267225,0.00939662,
 -0.02549884,0.51015061,-0.00004366,-0.00016755,-0.00036183,-0.00705786
 ,-0.00098328,0.00222572,0.00171699,0.00021570,0.00439802,0.00787371,-0
 .00194334,-0.00305045,0.00001148,0.00060592,0.00022651,0.00372858,-0.0
 0352012,-0.00060620,-0.01662987,-0.00606119,0.00397557,-0.00849055,-0.
 01104073,0.02446652,-0.00007873,-0.00006641,-0.00011511,-0.00371164,0.
 00475811,0.00280206,-0.00009729,0.00349765,-0.00131496,0.01107411,-0.1
 1531931,0.11015900,-0.00286560,0.00580307,-0.00335768,0.14654551,0.348
 49252,-0.00051462,0.00043167,0.00057953,0.00386561,0.00054747,-0.00217
 580,0.00049955,0.00091402,0.00249543,-0.01989345,-0.00366837,-0.012965
 32,0.00010155,-0.00009352,0.00024415,0.00417104,0.00268951,-0.00041548
 ,0.00264988,-0.01045001,0.00575562,0.02644376,0.04091459,-0.02803226,0
 .00039661,-0.00020412,0.00000041,0.00069796,0.00182699,0.00229180,-0.0
 0070035,0.00189033,0.00075741,-0.05159527,0.08297178,-0.21056787,0.000
 29310,0.00311566,-0.01022701,0.15097196,-0.22402545,0.49512615,-0.0001
 7681,-0.00002462,-0.00009284,-0.00203559,0.00018667,0.00001183,0.00025
 301,0.00030114,0.00227434,-0.00176764,-0.00097334,-0.00411751,0.000041
 58,0.00019391,0.00006794,0.00202216,-0.00094897,-0.00057814,-0.0034703
 0,-0.00370153,0.00321300,0.00197428,0.00115793,-0.00361340,-0.00006104
 ,-0.00009846,-0.00003646,0.00059150,-0.00020858,-0.00043020,0.00025727
 ,0.00108113,-0.00051705,0.00666153,0.00393821,0.00064417,0.00029256,0.
 00143735,0.00100458,-0.15864809,-0.13075014,0.04378269,0.16964962,0.00
 014966,0.00009676,0.00010963,0.00183349,0.00039446,-0.00078049,-0.0012
 4142,-0.00026227,-0.00108123,-0.00156759,0.00093208,-0.00013889,0.0000
 2892,0.00007089,0.00003469,-0.00047963,-0.00057202,0.00113682,-0.00085
 196,0.00170198,-0.00080907,0.00381461,0.00093012,0.00317713,-0.0000461
 0,0.00001126,-0.00000968,-0.00076085,0.00024020,0.00052411,-0.00023498
 ,0.00051565,0.00008996,-0.01023830,-0.00908529,0.00326317,0.00081708,-
 0.00054181,-0.00078744,-0.13687493,-0.17392724,0.06917901,0.14459233,0
 .18103113,-0.00001168,0.00013870,0.00011280,0.00126280,0.00034407,-0.0
 0069461,-0.00101741,-0.00010826,0.00002041,-0.00329124,0.00077813,-0.0
 0157080,0.00005325,0.00012538,0.00007978,0.00073613,-0.00080138,0.0007
 5845,-0.00340387,-0.00151924,0.00101185,0.00060332,0.00327009,-0.00117
 316,0.00001157,-0.00001477,-0.00002757,0.00077364,0.00005846,-0.000721
 48,-0.00031416,0.00117110,-0.00004832,0.01750672,0.01851748,-0.0064785
 4,0.00052147,-0.00132069,0.00016013,0.03600673,0.06434109,-0.06213425,
 -0.04448365,-0.07643226,0.06680592,0.00155663,-0.00133270,-0.00031162,
 0.00843021,-0.00437347,0.00065904,-0.00372500,-0.00216465,-0.01899845,
 0.03594511,0.00593171,0.04321910,-0.00027888,-0.00004124,-0.00041204,-
 0.02422945,-0.00630098,0.00999068,0.00897522,0.05333699,-0.04319274,-0
 .03698905,-0.03323705,0.01688581,-0.00041948,0.00122179,0.00017808,-0.
 00378223,0.00250581,0.00139531,0.00083892,-0.01480761,0.00375892,-0.01
 329024,0.04580975,-0.07205653,0.00009387,0.00400671,0.00055093,-0.2127
 8634,-0.02348915,-0.10559848,-0.01754722,0.00050607,-0.00473992,0.4677
 2200,0.00115930,-0.00117891,0.00058847,0.01451749,-0.00226091,-0.00127
 619,0.00023410,-0.00214687,-0.01845908,0.01552944,-0.00391262,0.032502
 47,-0.00021432,-0.00126533,-0.00089903,-0.02133977,0.00597202,0.002086
 78,0.03788898,0.04124330,-0.03081495,-0.01538658,-0.01014871,0.0055439
 7,0.00064181,0.00195330,0.00047403,-0.00249592,0.00176299,0.00079310,-
 0.00261507,-0.02897711,0.00311528,0.01622597,0.00985873,-0.02073232,-0
 .00097735,0.00211972,0.00534006,0.01694406,-0.06056322,0.02693785,-0.0
 1655026,-0.00153540,-0.00762919,-0.15898582,0.17085737,-0.00005568,-0.
 00068712,-0.00088496,-0.01005844,0.00074781,-0.00251774,-0.00347409,0.
 00182075,0.01158381,-0.00199511,0.00286128,-0.02500547,0.00022010,0.00
 093192,0.00010085,0.01137021,-0.00591688,-0.00305068,-0.02791698,-0.02
 642396,0.01703941,0.00571033,-0.00160233,0.00504322,-0.00194491,-0.001
 24453,-0.00017374,0.00114886,-0.00121942,-0.00055981,0.00362359,0.0038
 8738,-0.00261478,-0.03585880,0.00023612,-0.01698872,-0.00152778,0.0065
 9770,-0.00324707,-0.13653716,0.00105417,-0.16011911,-0.00135288,0.0038
 4946,0.00339430,0.48774299,-0.18288980,0.74379242,-0.00045980,0.000464
 05,0.00032649,-0.00005404,0.00102582,0.00088752,0.00208088,-0.00005158
 ,0.00253700,-0.01016114,-0.00296080,-0.00822054,0.00005052,-0.00010742
 ,0.00010354,0.00462738,0.00201322,-0.00195248,0.00305050,-0.01084639,0
 .01171525,0.00850936,0.00925377,-0.00498483,0.00063683,0.00046102,0.00
 002726,0.00093695,-0.00024001,-0.00031060,-0.00030149,0.00222893,-0.00
 073797,0.00112891,-0.01578874,0.01679654,0.00001843,-0.00048528,-0.001
 29323,-0.03548028,0.02226414,-0.05557154,0.00196316,0.00055359,-0.0002
 1373,-0.21051406,0.11542393,-0.28909426,0.23396791,-0.00045803,0.00083
 682,-0.00041625,-0.00750054,0.00117095,0.00189796,0.00124200,0.0003981
 1,0.00700022,-0.00376651,-0.00252614,-0.01134095,-0.00000931,0.0002335
 3,0.00013856,0.00658796,-0.00008663,-0.00204117,-0.00750366,-0.0243619
 2,0.02403642,0.00333997,0.00187730,-0.00075315,-0.00037706,-0.00074803
 ,-0.00019780,0.00074182,-0.00078700,-0.00040262,-0.00085269,0.00482117
 ,0.00250675,-0.00333888,0.00307808,0.00705533,0.00044506,-0.00074478,-
 0.00114030,0.00287706,0.01021941,0.00702261,0.00036723,-0.00000050,-0.
 00091872,0.13141383,-0.12177835,0.19799744,-0.12320825,0.12839798,0.00
 003152,-0.00030436,0.00056974,0.00707112,-0.00175457,0.00051193,0.0016
 8498,-0.00073499,-0.00695499,0.00389470,0.00356595,0.01621238,-0.00004
 143,-0.00030304,0.00002259,-0.00618171,0.00126500,0.00174405,0.0103080
 0,0.02664256,-0.02650554,-0.00837289,-0.00056264,-0.00454319,0.0015229
 4,0.00092708,0.00002344,-0.00045465,0.00107280,0.00054465,-0.00128527,
 -0.00251050,0.00051455,0.00575465,0.00053056,0.00066134,-0.00004942,-0
 .00056617,-0.00002594,-0.02902060,0.01918303,-0.02061340,0.00422358,-0
 .00132492,0.00050509,-0.31907109,0.18531855,-0.56579193,0.32998557,-0.
 23044434,0.60312521\\-0.00160700,0.00155417,-0.00000244,0.00160499,-0.
 00239113,-0.00000493,-0.00001724,0.00085405,0.00000543,0.00002823,-0.0
 0001952,0.00001292,0.00000005,-0.00000171,-0.00000061,-0.00009207,-0.0
 0000903,-0.00000314,0.00008484,0.00001500,-0.00000767,-0.00001053,-0.0
 0000874,0.00000321,-0.00000353,0.00000212,0.00000075,0.00000270,0.0000
 0319,0.00000016,0.00000384,-0.00000720,0.00000311,-0.00000417,0.000011
 72,-0.00001422,-0.00000081,0.00000168,0.00000117,0.00001655,0.00001243
 ,0.00001339,0.00000042,-0.00000458,-0.00000426,-0.00000736,-0.00002706
 ,-0.00001013,0.00000110,0.00001458,0.00000726\\\@


 The impersonal hand of government can
 never replace the helping hand of a neighbor.
                        -- Hubert H. Humphrey
 Job cpu time:       0 days  2 hours 11 minutes  3.3 seconds.
 Elapsed time:       0 days  0 hours 10 minutes 56.1 seconds.
 File lengths (MBytes):  RWF=    182 Int=      0 D2E=      0 Chk=     32 Scr=      1
 Normal termination of Gaussian 16 at Fri Jun 10 23:52:15 2022.
