 Entering Gaussian System, Link 0=g16
 Input=ts_zmat_field_N100.gjf
 Output=ts_zmat_field_N100.out
 Initial command:
 /software/gaussian/g16-a03/l1.exe "/local_scratch/9923081/Gau-23579.inp" -scrdir="/local_scratch/9923081/"
 Entering Link 1 = /software/gaussian/g16-a03/l1.exe PID=     23580.
  
 Copyright (c) 1988,1990,1992,1993,1995,1998,2003,2009,2016,
            Gaussian, Inc.  All Rights Reserved.
  
 This is part of the Gaussian(R) 16 program.  It is based on
 the Gaussian(R) 09 system (copyright 2009, Gaussian, Inc.),
 the Gaussian(R) 03 system (copyright 2003, Gaussian, Inc.),
 the Gaussian(R) 98 system (copyright 1998, Gaussian, Inc.),
 the Gaussian(R) 94 system (copyright 1995, Gaussian, Inc.),
 the Gaussian 92(TM) system (copyright 1992, Gaussian, Inc.),
 the Gaussian 90(TM) system (copyright 1990, Gaussian, Inc.),
 the Gaussian 88(TM) system (copyright 1988, Gaussian, Inc.),
 the Gaussian 86(TM) system (copyright 1986, Carnegie Mellon
 University), and the Gaussian 82(TM) system (copyright 1983,
 Carnegie Mellon University). Gaussian is a federally registered
 trademark of Gaussian, Inc.
  
 This software contains proprietary and confidential information,
 including trade secrets, belonging to Gaussian, Inc.
  
 This software is provided under written license and may be
 used, copied, transmitted, or stored only in accord with that
 written license.
  
 The following legend is applicable only to US Government
 contracts under FAR:
  
                    RESTRICTED RIGHTS LEGEND
  
 Use, reproduction and disclosure by the US Government is
 subject to restrictions as set forth in subparagraphs (a)
 and (c) of the Commercial Computer Software - Restricted
 Rights clause in FAR 52.227-19.
  
 Gaussian, Inc.
 340 Quinnipiac St., Bldg. 40, Wallingford CT 06492
  
  
 ---------------------------------------------------------------
 Warning -- This program may not be used in any manner that
 competes with the business of Gaussian, Inc. or will provide
 assistance to any competitor of Gaussian, Inc.  The licensee
 of this program is prohibited from giving any competitor of
 Gaussian, Inc. access to this program.  By using this program,
 the user acknowledges that Gaussian, Inc. is engaged in the
 business of creating and licensing software in the field of
 computational chemistry and represents and warrants to the
 licensee that it is not a competitor of Gaussian, Inc. and that
 it will not use this program in any manner prohibited above.
 ---------------------------------------------------------------
  

 Cite this work as:
 Gaussian 16, Revision A.03,
 M. J. Frisch, G. W. Trucks, H. B. Schlegel, G. E. Scuseria, 
 M. A. Robb, J. R. Cheeseman, G. Scalmani, V. Barone, 
 G. A. Petersson, H. Nakatsuji, X. Li, M. Caricato, A. V. Marenich, 
 J. Bloino, B. G. Janesko, R. Gomperts, B. Mennucci, H. P. Hratchian, 
 J. V. Ortiz, A. F. Izmaylov, J. L. Sonnenberg, D. Williams-Young, 
 F. Ding, F. Lipparini, F. Egidi, J. Goings, B. Peng, A. Petrone, 
 T. Henderson, D. Ranasinghe, V. G. Zakrzewski, J. Gao, N. Rega, 
 G. Zheng, W. Liang, M. Hada, M. Ehara, K. Toyota, R. Fukuda, 
 J. Hasegawa, M. Ishida, T. Nakajima, Y. Honda, O. Kitao, H. Nakai, 
 T. Vreven, K. Throssell, J. A. Montgomery, Jr., J. E. Peralta, 
 F. Ogliaro, M. J. Bearpark, J. J. Heyd, E. N. Brothers, K. N. Kudin, 
 V. N. Staroverov, T. A. Keith, R. Kobayashi, J. Normand, 
 K. Raghavachari, A. P. Rendell, J. C. Burant, S. S. Iyengar, 
 J. Tomasi, M. Cossi, J. M. Millam, M. Klene, C. Adamo, R. Cammi, 
 J. W. Ochterski, R. L. Martin, K. Morokuma, O. Farkas, 
 J. B. Foresman, and D. J. Fox, Gaussian, Inc., Wallingford CT, 2016.
 
 ******************************************
 Gaussian 16:  ES64L-G16RevA.03 25-Dec-2016
                21-Mar-2022 
 ******************************************
 %nprocshared=12
 Will use up to   12 processors via shared memory.
 %chk=checkpoint.chk
 %mem=12GB
 ----------------------------------------------------------------------
 # Opt=(TS, CalcFC, noeigentest, Z-matrix, MaxStep=10) geom=allcheckpoi
 nt guess=read Field=read NoSymm B3LYP/Def2TZVP
 ----------------------------------------------------------------------
 1/5=1,8=10,10=4,11=1,18=40,26=3,29=7,38=1/1,3;
 2/12=2,15=1,29=3,40=1/2;
 3/5=44,7=101,11=2,14=-6,25=1,30=1,71=2,74=-5,116=-2,140=1/1,2,3;
 4/5=1/1;
 5/5=2,38=6/2;
 8/6=4,10=90,11=11/1;
 11/6=1,8=1,9=11,15=111,16=1,31=1/1,2,10;
 10/6=1,13=1,31=1/2;
 6/7=2,8=2,9=2,10=2,28=1/1;
 7/10=1,18=20,25=1,30=1/1,2,3,16;
 1/5=1,8=10,10=4,11=1,18=40,26=3/3(2);
 2/15=1,29=3/2;
 99//99;
 2/15=1,29=3/2;
 3/5=44,7=101,11=2,14=-2,25=1,30=1,71=1,74=-5/1,2,3;
 4/5=5,16=3,69=1/1;
 5/5=2,38=5/2;
 7/30=1/1,2,3,16;
 1/5=1,8=10,11=1,18=40,26=3/3(-5);
 2/15=1,29=3/2;
 6/7=2,8=2,9=2,10=2,19=2,28=1/1;
 99/9=1/99;
 Structure from the checkpoint file:  "checkpoint.chk"
 -----------------
 ts_zmat_initalOpt
 -----------------
 Charge =  0 Multiplicity = 1
 Z-Matrix found in chk file.
 H
 C,1,R2
 C,2,R3,1,A3
 C,2,R4,1,A4,3,D4,0
 H,3,R5,2,A5,1,D5,0
 O,3,R6,2,A6,5,D6,0
 C,4,R7,2,A7,1,D7,0
 H,4,R8,2,A8,7,D8,0
 C,7,R9,4,A9,2,D9,0
 H,7,R10,4,A10,9,D10,0
 H,9,R11,7,A11,4,D11,0
 H,9,R12,7,A12,11,D12,0
      Variables:
 R2=1.08098703
 R3=1.40375739
 R4=1.40277401
 R5=1.09674553
 R6=1.26751229
 R7=1.38499695
 R8=1.08511567
 R9=1.39408649
 R10=1.08262736
 R11=1.08314044
 R12=1.08144235
 A3=116.87774772
 A4=119.70044343
 A5=115.67383706
 A6=128.40575807
 A7=120.58928278
 A8=118.22102717
 A9=116.98797081
 A10=121.18268972
 A11=120.61310599
 A12=118.24394882
 D4=157.29939339
 D5=12.5006868
 D6=171.10625443
 D7=-178.54607267
 D8=169.59582234
 D9=-21.16101302
 D10=172.22606038
 D11=164.43593027
 D12=150.97354016
 Recover connectivity data from disk.

 GradGradGradGradGradGradGradGradGradGradGradGradGradGradGradGradGradGrad
 Berny optimization.
 Initialization pass.
                       ----------------------------
                       !    Initial Parameters    !
                       ! (Angstroms and Degrees)  !
 ----------------------                            ----------------------
 !      Name          Value   Derivative information (Atomic Units)     !
 ------------------------------------------------------------------------
 !       R2          1.081    calculate D2E/DX2 analytically            !
 !       R3          1.4038   calculate D2E/DX2 analytically            !
 !       R4          1.4028   calculate D2E/DX2 analytically            !
 !       R5          1.0967   calculate D2E/DX2 analytically            !
 !       R6          1.2675   calculate D2E/DX2 analytically            !
 !       R7          1.385    calculate D2E/DX2 analytically            !
 !       R8          1.0851   calculate D2E/DX2 analytically            !
 !       R9          1.3941   calculate D2E/DX2 analytically            !
 !       R10         1.0826   calculate D2E/DX2 analytically            !
 !       R11         1.0831   calculate D2E/DX2 analytically            !
 !       R12         1.0814   calculate D2E/DX2 analytically            !
 !       A3        116.8777   calculate D2E/DX2 analytically            !
 !       A4        119.7004   calculate D2E/DX2 analytically            !
 !       A5        115.6738   calculate D2E/DX2 analytically            !
 !       A6        128.4058   calculate D2E/DX2 analytically            !
 !       A7        120.5893   calculate D2E/DX2 analytically            !
 !       A8        118.221    calculate D2E/DX2 analytically            !
 !       A9        116.988    calculate D2E/DX2 analytically            !
 !       A10       121.1827   calculate D2E/DX2 analytically            !
 !       A11       120.6131   calculate D2E/DX2 analytically            !
 !       A12       118.2439   calculate D2E/DX2 analytically            !
 !       D4        157.2994   calculate D2E/DX2 analytically            !
 !       D5         12.5007   calculate D2E/DX2 analytically            !
 !       D6        171.1063   calculate D2E/DX2 analytically            !
 !       D7       -178.5461   calculate D2E/DX2 analytically            !
 !       D8        169.5958   calculate D2E/DX2 analytically            !
 !       D9        -21.161    calculate D2E/DX2 analytically            !
 !       D10       172.2261   calculate D2E/DX2 analytically            !
 !       D11       164.4359   calculate D2E/DX2 analytically            !
 !       D12       150.9735   calculate D2E/DX2 analytically            !
 ------------------------------------------------------------------------
 Trust Radius=1.00D-01 FncErr=1.00D-07 GrdErr=1.00D-06 EigMax=2.50D+02 EigMin=1.00D-04
 Number of steps in this run=     40 maximum allowed number of steps=    100.
 Search for a saddle point of order  1.
 GradGradGradGradGradGradGradGradGradGradGradGradGradGradGradGradGradGrad

 ---------------------------------------------------------------------------------------------------
                            Z-MATRIX (ANGSTROMS AND DEGREES)
   CD    Cent   Atom    N1       Length/X        N2       Alpha/Y        N3        Beta/Z          J
 ---------------------------------------------------------------------------------------------------
      1      1  H 
      2      2  C        1   1.080987(     1)
      3      3  C        2   1.403757(     2)      1  116.878(    12)
      4      4  C        2   1.402774(     3)      1  119.700(    13)      3  157.299(    22)      0
      5      5  H        3   1.096746(     4)      2  115.674(    14)      1   12.501(    23)      0
      6      6  O        3   1.267512(     5)      2  128.406(    15)      5  171.106(    24)      0
      7      7  C        4   1.384997(     6)      2  120.589(    16)      1 -178.546(    25)      0
      8      8  H        4   1.085116(     7)      2  118.221(    17)      7  169.596(    26)      0
      9      9  C        7   1.394086(     8)      4  116.988(    18)      2  -21.161(    27)      0
     10     10  H        7   1.082627(     9)      4  121.183(    19)      9  172.226(    28)      0
     11     11  H        9   1.083140(    10)      7  120.613(    20)      4  164.436(    29)      0
     12     12  H        9   1.081442(    11)      7  118.244(    21)     11  150.974(    30)      0
 ---------------------------------------------------------------------------------------------------
                         Z-Matrix orientation:                         
 ---------------------------------------------------------------------
 Center     Atomic      Atomic             Coordinates (Angstroms)
 Number     Number       Type             X           Y           Z
 ---------------------------------------------------------------------
      1          1           0        0.000000    0.000000    0.000000
      2          6           0        0.000000    0.000000    1.080987
      3          6           0        1.252114    0.000000    1.715609
      4          6           0       -1.124097    0.470234    1.776013
      5          1           0        2.112228    0.213955    1.069638
      6          8           0        1.506312   -0.062488    2.955797
      7          6           0       -1.132418    0.506506    3.160510
      8          1           0       -1.909586    0.960063    1.209841
      9          6           0       -0.229708   -0.325872    3.820613
     10          1           0       -1.719790    1.239731    3.698523
     11          1           0       -0.003714   -0.173278    4.868866
     12          1           0       -0.127308   -1.345637    3.475486
 ---------------------------------------------------------------------
                    Distance matrix (angstroms):
                    1          2          3          4          5
     1  H    0.000000
     2  C    1.080987   0.000000
     3  C    2.123936   1.403757   0.000000
     4  C    2.153819   1.402774   2.423045   0.000000
     5  H    2.377269   2.123066   1.096746   3.322415   0.000000
     6  O    3.318074   2.405783   1.267512   2.931678   2.000287
     7  C    3.395253   2.421433   2.833775   1.384997   3.871054
     8  H    2.456004   2.141225   3.342734   1.085116   4.092837
     9  C    3.841359   2.768485   2.594808   2.369410   3.652935
    10  H    4.263060   3.368398   3.781679   2.154767   4.758950
    11  H    4.871950   3.791842   3.398553   3.351881   4.365924
    12  H    3.729068   2.749649   2.609733   2.679400   3.638124
                    6          7          8          9         10
     6  O    0.000000
     7  C    2.707131   0.000000
     8  H    3.970180   2.148211   0.000000
     9  C    1.957305   1.394086   3.360320   0.000000
    10  H    3.557408   1.082627   2.511528   2.164802   0.000000
    11  H    2.439731   2.157443   4.278466   1.083140   2.512213
    12  H    2.141323   2.130702   3.691329   1.081442   3.044646
                   11         12
    11  H    0.000000
    12  H    1.825160   0.000000
 Symmetry turned off by external request.
 Stoichiometry    C5H6O
 Framework group  C1[X(C5H6O)]
 Deg. of freedom    30
 Full point group                 C1      NOp   1
 Rotational constants (GHZ):           5.5529563           4.6828243           2.7125475
 Standard basis: def2TZVP (5D, 7F)
 The following finite field(s) will be applied:
 An electric field of              0.0079  0.0040  0.0046
   222 basis functions,   354 primitive gaussians,   252 cartesian basis functions
    22 alpha electrons       22 beta electrons
       nuclear repulsion energy       217.9858848256 Hartrees.
 NAtoms=   12 NActive=   12 NUniq=   12 SFac= 1.00D+00 NAtFMM=   60 NAOKFM=F Big=F
 Integral buffers will be    131072 words long.
 Raffenetti 2 integral format.
 Two-electron integral symmetry is turned off.
 One-electron integrals computed using PRISM.
   1 Symmetry operations used in ECPInt.
 ECPInt:  NShTT=    4095 NPrTT=   12396 LenC2=    4074 LenP2D=   10363.
 LDataN:  DoStor=T MaxTD1= 6 Len=  172
 NBasis=   222 RedAO= T EigKep=  1.11D-04  NBF=   222
 NBsUse=   222 1.00D-06 EigRej= -1.00D+00 NBFU=   222
 The nuclear repulsion energy is now       218.9956181210 hartrees.
 Initial guess from the checkpoint file:  "checkpoint.chk"
 B after Tr=    -0.000000   -0.000000    0.000000
         Rot=    1.000000    0.000000    0.000000    0.000000 Ang=   0.00 deg.
 Keep R1 ints in memory in canonical form, NReq=319363861.
 Requested convergence on RMS density matrix=1.00D-08 within 128 cycles.
 Requested convergence on MAX density matrix=1.00D-06.
 Requested convergence on             energy=1.00D-06.
 No special actions if energy rises.
 SCF Done:  E(RB3LYP) =  -269.398129082     A.U. after   10 cycles
            NFock= 10  Conv=0.85D-08     -V/T= 2.0050
 DoSCS=F DFT=T ScalE2(SS,OS)=  1.000000  1.000000
 Range of M.O.s used for correlation:     1   222
 NBasis=   222 NAE=    22 NBE=    22 NFC=     0 NFV=     0
 NROrb=    222 NOA=    22 NOB=    22 NVA=   200 NVB=   200

 **** Warning!!: The largest alpha MO coefficient is  0.19465830D+02

   1 Symmetry operations used in ECPInt.
 ECPInt:  NShTT=    4095 NPrTT=   12396 LenC2=    4074 LenP2D=   10363.
 LDataN:  DoStor=T MaxTD1= 7 Len=  274
 Symmetrizing basis deriv contribution to polar:
 IMax=3 JMax=2 DiffMx= 0.00D+00
 G2DrvN: will do    13 centers at a time, making    1 passes.
 Calling FoFCou, ICntrl=  3107 FMM=F I1Cent=   0 AccDes= 0.00D+00.
 End of G2Drv F.D. properties file   721 does not exist.
 End of G2Drv F.D. properties file   722 does not exist.
 End of G2Drv F.D. properties file   788 does not exist.
          IDoAtm=111111111111
          Differentiating once with respect to nuclear coordinates.
 Keep R1 ints in memory in canonical form, NReq=319333990.
          There are    39 degrees of freedom in the 1st order CPHF.  IDoFFX=6 NUNeed=     0.
     33 vectors produced by pass  0 Test12= 1.13D-14 2.56D-09 XBig12= 1.79D-01 2.68D-01.
 AX will form    33 AO Fock derivatives at one time.
     33 vectors produced by pass  1 Test12= 1.13D-14 2.56D-09 XBig12= 3.11D-02 4.18D-02.
     33 vectors produced by pass  2 Test12= 1.13D-14 2.56D-09 XBig12= 4.13D-04 4.63D-03.
     33 vectors produced by pass  3 Test12= 1.13D-14 2.56D-09 XBig12= 1.84D-06 1.93D-04.
     33 vectors produced by pass  4 Test12= 1.13D-14 2.56D-09 XBig12= 4.27D-09 7.95D-06.
     30 vectors produced by pass  5 Test12= 1.13D-14 2.56D-09 XBig12= 8.97D-12 4.27D-07.
      7 vectors produced by pass  6 Test12= 1.13D-14 2.56D-09 XBig12= 1.29D-14 1.67D-08.
 InvSVY:  IOpt=1 It=  1 EMax= 2.55D-15
 Solved reduced A of dimension   202 with    33 vectors.
 End of Minotr F.D. properties file   721 does not exist.
 End of Minotr F.D. properties file   722 does not exist.
 End of Minotr F.D. properties file   788 does not exist.

 **********************************************************************

            Population analysis using the SCF density.

 **********************************************************************

 Alpha  occ. eigenvalues --  -19.16702 -10.27482 -10.24564 -10.21299 -10.18900
 Alpha  occ. eigenvalues --  -10.18760  -1.06879  -0.84793  -0.77807  -0.68814
 Alpha  occ. eigenvalues --   -0.62958  -0.54798  -0.53061  -0.49197  -0.48170
 Alpha  occ. eigenvalues --   -0.46496  -0.41662  -0.40246  -0.39517  -0.35094
 Alpha  occ. eigenvalues --   -0.30958  -0.23558
 Alpha virt. eigenvalues --   -0.09122  -0.01927   0.02394   0.03078   0.04905
 Alpha virt. eigenvalues --    0.05973   0.08226   0.09167   0.11609   0.12918
 Alpha virt. eigenvalues --    0.15392   0.17659   0.18564   0.20353   0.20485
 Alpha virt. eigenvalues --    0.21622   0.22862   0.24835   0.26250   0.27034
 Alpha virt. eigenvalues --    0.28921   0.31318   0.31996   0.33842   0.36577
 Alpha virt. eigenvalues --    0.37525   0.38214   0.40372   0.40675   0.41926
 Alpha virt. eigenvalues --    0.42807   0.43667   0.44049   0.45854   0.47909
 Alpha virt. eigenvalues --    0.50828   0.51943   0.53943   0.54734   0.55777
 Alpha virt. eigenvalues --    0.59533   0.63576   0.66521   0.68083   0.73170
 Alpha virt. eigenvalues --    0.77380   0.80388   0.84795   0.85898   0.87219
 Alpha virt. eigenvalues --    0.90261   0.91812   0.94336   0.94541   0.96140
 Alpha virt. eigenvalues --    0.99550   1.01900   1.05455   1.09002   1.10034
 Alpha virt. eigenvalues --    1.13246   1.15318   1.17363   1.21447   1.21577
 Alpha virt. eigenvalues --    1.27323   1.29886   1.32633   1.37667   1.38041
 Alpha virt. eigenvalues --    1.41337   1.42278   1.44608   1.45397   1.49230
 Alpha virt. eigenvalues --    1.50987   1.55839   1.57976   1.61550   1.63039
 Alpha virt. eigenvalues --    1.65155   1.66509   1.71479   1.76105   1.76698
 Alpha virt. eigenvalues --    1.79419   1.81037   1.83715   1.87229   1.89377
 Alpha virt. eigenvalues --    1.92268   1.95082   2.03788   2.04306   2.08153
 Alpha virt. eigenvalues --    2.12232   2.13731   2.18251   2.18825   2.23804
 Alpha virt. eigenvalues --    2.25732   2.30087   2.36344   2.40232   2.42956
 Alpha virt. eigenvalues --    2.47586   2.49585   2.51043   2.53211   2.54393
 Alpha virt. eigenvalues --    2.56396   2.59436   2.60995   2.63545   2.66351
 Alpha virt. eigenvalues --    2.68504   2.68982   2.74772   2.76732   2.77039
 Alpha virt. eigenvalues --    2.79831   2.81934   2.82698   2.84538   2.86889
 Alpha virt. eigenvalues --    2.89711   2.93287   2.94103   2.96476   2.99707
 Alpha virt. eigenvalues --    3.00994   3.02917   3.04452   3.10046   3.11747
 Alpha virt. eigenvalues --    3.13315   3.16174   3.17987   3.20906   3.21586
 Alpha virt. eigenvalues --    3.23489   3.26052   3.27244   3.32776   3.34488
 Alpha virt. eigenvalues --    3.37979   3.39980   3.41641   3.42976   3.45956
 Alpha virt. eigenvalues --    3.47848   3.50303   3.56224   3.61297   3.61766
 Alpha virt. eigenvalues --    3.67051   3.83933   3.87679   3.90152   3.92174
 Alpha virt. eigenvalues --    3.95305   4.00863   4.02400   4.06667   4.09621
 Alpha virt. eigenvalues --    4.14032   4.16408   4.24512   4.28349   4.30893
 Alpha virt. eigenvalues --    4.36973   4.42179   4.47152   4.52581   4.63089
 Alpha virt. eigenvalues --    4.65072   4.70509   4.79625   4.83987   4.85613
 Alpha virt. eigenvalues --    5.04380   5.13525   5.22661   5.26945   5.48058
 Alpha virt. eigenvalues --    5.58134   5.95037   6.17412   6.29807   6.48230
 Alpha virt. eigenvalues --    6.70240   6.75431   6.94088   7.05781  22.04402
 Alpha virt. eigenvalues --   22.32275  22.48495  22.67758  22.86033  43.78771
          Condensed to atoms (all electrons):
               1          2          3          4          5          6
     1  H    0.533404   0.411560  -0.039818  -0.041670  -0.000815   0.005669
     2  C    0.411560   5.210744   0.428975   0.466153  -0.096680  -0.129982
     3  C   -0.039818   0.428975   4.687208  -0.015942   0.407954   0.490618
     4  C   -0.041670   0.466153  -0.015942   4.867371  -0.000734  -0.012010
     5  H   -0.000815  -0.096680   0.407954  -0.000734   0.649071  -0.039207
     6  O    0.005669  -0.129982   0.490618  -0.012010  -0.039207   8.051870
     7  C    0.008869  -0.026550  -0.065178   0.481060  -0.003758  -0.029260
     8  H   -0.006032  -0.045435   0.003943   0.424897  -0.000735  -0.000694
     9  C    0.000303  -0.001016  -0.046889  -0.081295   0.002883   0.062005
    10  H   -0.000176   0.009342  -0.002746  -0.050516   0.000088   0.001187
    11  H    0.000017  -0.000765   0.001151   0.010873  -0.000094  -0.002925
    12  H    0.000122   0.028878  -0.009620  -0.032748  -0.001345  -0.050120
               7          8          9         10         11         12
     1  H    0.008869  -0.006032   0.000303  -0.000176   0.000017   0.000122
     2  C   -0.026550  -0.045435  -0.001016   0.009342  -0.000765   0.028878
     3  C   -0.065178   0.003943  -0.046889  -0.002746   0.001151  -0.009620
     4  C    0.481060   0.424897  -0.081295  -0.050516   0.010873  -0.032748
     5  H   -0.003758  -0.000735   0.002883   0.000088  -0.000094  -0.001345
     6  O   -0.029260  -0.000694   0.062005   0.001187  -0.002925  -0.050120
     7  C    5.012744  -0.044651   0.492930   0.423500  -0.049204  -0.017451
     8  H   -0.044651   0.513613   0.011023  -0.005885  -0.000222  -0.000178
     9  C    0.492930   0.011023   4.862734  -0.050228   0.392787   0.427286
    10  H    0.423500  -0.005885  -0.050228   0.571714  -0.006576   0.005806
    11  H   -0.049204  -0.000222   0.392787  -0.006576   0.592790  -0.034008
    12  H   -0.017451  -0.000178   0.427286   0.005806  -0.034008   0.533292
 Mulliken charges:
               1
     1  H    0.128565
     2  C   -0.255224
     3  C    0.160344
     4  C   -0.015440
     5  H    0.083373
     6  O   -0.347151
     7  C   -0.183051
     8  H    0.150356
     9  C   -0.072524
    10  H    0.104489
    11  H    0.096178
    12  H    0.150084
 Sum of Mulliken charges =  -0.00000
 Mulliken charges with hydrogens summed into heavy atoms:
               1
     2  C   -0.126658
     3  C    0.243717
     4  C    0.134916
     6  O   -0.347151
     7  C   -0.078562
     9  C    0.173738
 APT charges:
               1
     1  H    0.092348
     2  C   -0.433727
     3  C   -0.354555
     4  C   -0.454287
     5  H    0.256058
     6  O    0.140370
     7  C   -0.491232
     8  H    0.313486
     9  C   -0.726677
    10  H    0.682230
    11  H    0.808098
    12  H    0.167889
 Sum of APT charges =  -0.00000
 APT charges with hydrogens summed into heavy atoms:
               1
     2  C   -0.341379
     3  C   -0.098497
     4  C   -0.140802
     6  O    0.140370
     7  C    0.190998
     9  C    0.249309
 Electronic spatial extent (au):  <R**2>=           1423.0076
 Charge=             -0.0000 electrons
 Dipole moment (field-independent basis, Debye):
    X=             -2.2927    Y=             -0.0530    Z=             -1.2516  Tot=              2.6126
 Quadrupole moment (field-independent basis, Debye-Ang):
   XX=            -37.4957   YY=            -36.5059   ZZ=            -37.8781
   XY=             -1.7021   XZ=             -7.6060   YZ=             -1.0468
 Traceless Quadrupole moment (field-independent basis, Debye-Ang):
   XX=             -0.2025   YY=              0.7873   ZZ=             -0.5849
   XY=             -1.7021   XZ=             -7.6060   YZ=             -1.0468
 Octapole moment (field-independent basis, Debye-Ang**2):
  XXX=             -9.6573  YYY=            -13.1825  ZZZ=           -253.9073  XYY=             -2.8066
  XXY=              0.7190  XXZ=            -99.6102  XZZ=            -26.0885  YZZ=             -7.9271
  YYZ=            -86.3012  XYZ=             -3.9779
 Hexadecapole moment (field-independent basis, Debye-Ang**3):
 XXXX=           -297.1569 YYYY=            -77.8709 ZZZZ=          -1457.8651 XXXY=             17.0305
 XXXZ=            -15.5903 YYYX=             23.0476 YYYZ=            -23.0612 ZZZX=            -72.6781
 ZZZY=            -29.9426 XXYY=            -58.9751 XXZZ=           -356.2926 YYZZ=           -266.9262
 XXYZ=              4.2464 YYXZ=             -2.1613 ZZXY=             -4.8595
 N-N= 2.189956181210D+02 E-N=-1.064935865217D+03  KE= 2.680566078705D+02
  Exact polarizability:   0.000   0.000   0.000   0.000   0.000   0.000
 Approx polarizability: 134.318 -14.041  67.461  -4.657  -3.718 129.138
   1 Symmetry operations used in ECPInt.
 ECPInt:  NShTT=    4095 NPrTT=   12396 LenC2=    4074 LenP2D=   10363.
 LDataN:  DoStor=T MaxTD1= 8 Len=  415
 Calling FoFJK, ICntrl=    100147 FMM=F ISym2X=0 I1Cent= 0 IOpClX= 0 NMat=1 NMatS=1 NMatT=0.
 -------------------------------------------------------------------
 Center     Atomic                   Forces (Hartrees/Bohr)
 Number     Number              X              Y              Z
 -------------------------------------------------------------------
      1        1          -0.000107643   -0.000309257    0.000024844
      2        6           0.001080322   -0.000465921    0.000086395
      3        6          -0.001615950    0.000811832   -0.001720621
      4        6          -0.000384583    0.000047699   -0.000123359
      5        1           0.000043312    0.000035935   -0.000309715
      6        8           0.002042698    0.000227603    0.001628211
      7        6           0.000825302    0.000023093    0.000548998
      8        1          -0.000059700   -0.000272800   -0.000019762
      9        6          -0.001434289    0.000046721   -0.000271357
     10        1          -0.000235763   -0.000140801   -0.000054858
     11        1          -0.000153758   -0.000040799    0.000206333
     12        1           0.000000051    0.000036695    0.000004890
 -------------------------------------------------------------------
 Cartesian Forces:  Max     0.002042698 RMS     0.000711268
 -----------------------------------------------------------------------------------------------
                       Internal Coordinate Forces (Hartree/Bohr or radian)
  Cent   Atom   N1       Length/X         N2         Alpha/Y        N3         Beta/Z          J
 -----------------------------------------------------------------------------------------------
      1  H 
      2  C        1  -0.000025(     1)
      3  C        2   0.000237(     2)      1  -0.005971(    12)
      4  C        2   0.001200(     3)      1  -0.005602(    13)      3   0.000541(    22)     0
      5  H        3   0.000223(     4)      2  -0.000456(    14)      1  -0.000543(    23)     0
      6  O        3   0.001992(     5)      2   0.004038(    15)      5  -0.000489(    24)     0
      7  C        4   0.000438(     6)      2   0.004577(    16)      1  -0.002551(    25)     0
      8  H        4  -0.000070(     7)      2  -0.000048(    17)      7   0.000488(    26)     0
      9  C        7  -0.001082(     8)      4   0.001488(    18)      2  -0.001976(    27)     0
     10  H        7   0.000005(     9)      4  -0.000143(    19)      9   0.000475(    28)     0
     11  H        9   0.000162(    10)      7  -0.000143(    20)      4   0.000351(    29)     0
     12  H        9  -0.000036(    11)      7  -0.000006(    21)     11   0.000013(    30)     0
 -----------------------------------------------------------------------------------------------
 Internal  Forces:  Max     0.005970911 RMS     0.002045160

 GradGradGradGradGradGradGradGradGradGradGradGradGradGradGradGradGradGrad
 Berny optimization.
 Search for a saddle point.
 Step number   1 out of a maximum of   40
 All quantities printed in internal units (Hartrees-Bohrs-Radians)
 Swapping is turned off.
 Second derivative matrix not updated -- analytic derivatives used.
 ITU=  0
     Eigenvalues ---   -1.05362   0.02327   0.02888   0.04502   0.04741
     Eigenvalues ---    0.05754   0.11338   0.12005   0.14410   0.15510
     Eigenvalues ---    0.18055   0.20273   0.22985   0.25637   0.29652
     Eigenvalues ---    0.32245   0.34204   0.35108   0.35288   0.35924
     Eigenvalues ---    0.36223   0.38803   0.41942   0.44058   0.49080
     Eigenvalues ---    0.52467   0.56613   0.70528   0.98469   1.91230
 Eigenvectors required to have negative eigenvalues:
                          A7        A4        A3        R6        D12
   1                    0.40531  -0.40495  -0.37502  -0.26808   0.26784
                          R9        A9        A6        R3        D11
   1                   -0.26236   0.25756   0.22183   0.21031   0.20549
 RFO step:  Lambda0=5.736118097D-05 Lambda=-1.00984395D-04.
 Linear search not attempted -- option 19 set.
 Variable       Old X    -DE/DX   Delta X   Delta X   Delta X     New X
                                 (Linear)    (Quad)   (Total)
    R2        2.04277  -0.00002   0.00000  -0.00022  -0.00022   2.04255
    R3        2.65272   0.00024   0.00000  -0.00555  -0.00555   2.64717
    R4        2.65086   0.00120   0.00000   0.00269   0.00269   2.65355
    R5        2.07255   0.00022   0.00000   0.00009   0.00009   2.07264
    R6        2.39525   0.00199   0.00000   0.00721   0.00721   2.40246
    R7        2.61726   0.00044   0.00000  -0.00240  -0.00240   2.61487
    R8        2.05057  -0.00007   0.00000  -0.00036  -0.00036   2.05022
    R9        2.63444  -0.00108   0.00000   0.00162   0.00162   2.63607
   R10        2.04587   0.00001   0.00000  -0.00019  -0.00019   2.04568
   R11        2.04684   0.00016   0.00000   0.00050   0.00050   2.04734
   R12        2.04363  -0.00004   0.00000   0.00021   0.00021   2.04384
    A3        2.03990  -0.00597   0.00000   0.00340   0.00340   2.04330
    A4        2.08917  -0.00560   0.00000  -0.00044  -0.00044   2.08873
    A5        2.01889  -0.00046   0.00000   0.00023   0.00023   2.01912
    A6        2.24110   0.00404   0.00000   0.00196   0.00196   2.24307
    A7        2.10468   0.00458   0.00000  -0.00173  -0.00173   2.10295
    A8        2.06335  -0.00005   0.00000   0.00037   0.00037   2.06372
    A9        2.04183   0.00149   0.00000  -0.00167  -0.00167   2.04016
   A10        2.11504  -0.00014   0.00000   0.00227   0.00227   2.11731
   A11        2.10510  -0.00014   0.00000  -0.00134  -0.00134   2.10376
   A12        2.06375  -0.00001   0.00000  -0.00137  -0.00137   2.06238
    D4        2.74539   0.00054   0.00000   0.01748   0.01748   2.76287
    D5        0.21818  -0.00054   0.00000   0.00342   0.00342   0.22160
    D6        2.98637  -0.00049   0.00000  -0.00218  -0.00218   2.98418
    D7       -3.11622  -0.00255   0.00000  -0.01166  -0.01166  -3.12787
    D8        2.96001   0.00049   0.00000   0.00387   0.00387   2.96388
    D9       -0.36933  -0.00198   0.00000  -0.00031  -0.00031  -0.36964
   D10        3.00591   0.00047   0.00000   0.01564   0.01564   3.02155
   D11        2.86995   0.00035   0.00000   0.00682   0.00682   2.87677
   D12        2.63499   0.00001   0.00000  -0.00853  -0.00853   2.62646
         Item               Value     Threshold  Converged?
 Maximum Force            0.005971     0.000450     NO 
 RMS     Force            0.002045     0.000300     NO 
 Maximum Displacement     0.017476     0.001800     NO 
 RMS     Displacement     0.005675     0.001200     NO 
 Predicted change in Energy=-2.185612D-05
 GradGradGradGradGradGradGradGradGradGradGradGradGradGradGradGradGradGrad

 ---------------------------------------------------------------------------------------------------
                            Z-MATRIX (ANGSTROMS AND DEGREES)
   CD    Cent   Atom    N1       Length/X        N2       Alpha/Y        N3        Beta/Z          J
 ---------------------------------------------------------------------------------------------------
      1      1  H 
      2      2  C        1   1.080868(     1)
      3      3  C        2   1.400820(     2)      1  117.072(    12)
      4      4  C        2   1.404196(     3)      1  119.675(    13)      3  158.301(    22)      0
      5      5  H        3   1.096792(     4)      2  115.687(    14)      1   12.697(    23)      0
      6      6  O        3   1.271329(     5)      2  128.518(    15)      5  170.981(    24)      0
      7      7  C        4   1.383728(     6)      2  120.490(    16)      1 -179.214(    25)      0
      8      8  H        4   1.084927(     7)      2  118.242(    17)      7  169.818(    26)      0
      9      9  C        7   1.394946(     8)      4  116.892(    18)      2  -21.179(    27)      0
     10     10  H        7   1.082528(     9)      4  121.313(    19)      9  173.122(    28)      0
     11     11  H        9   1.083407(    10)      7  120.536(    20)      4  164.827(    29)      0
     12     12  H        9   1.081554(    11)      7  118.165(    21)     11  150.485(    30)      0
 ---------------------------------------------------------------------------------------------------
                         Z-Matrix orientation:                         
 ---------------------------------------------------------------------
 Center     Atomic      Atomic             Coordinates (Angstroms)
 Number     Number       Type             X           Y           Z
 ---------------------------------------------------------------------
      1          1           0        0.000000    0.000000    0.000000
      2          6           0        0.000000    0.000000    1.080868
      3          6           0        1.247334    0.000000    1.718406
      4          6           0       -1.133573    0.451087    1.776065
      5          1           0        2.109490    0.217241    1.076187
      6          8           0        1.500548   -0.063807    2.962628
      7          6           0       -1.145859    0.473581    3.159556
      8          1           0       -1.924083    0.933601    1.210962
      9          6           0       -0.234080   -0.356224    3.812208
     10          1           0       -1.753116    1.184399    3.705306
     11          1           0       -0.016833   -0.215445    4.864233
     12          1           0       -0.121818   -1.371244    3.455991
 ---------------------------------------------------------------------
                    Distance matrix (angstroms):
                    1          2          3          4          5
     1  H    0.000000
     2  C    1.080868   0.000000
     3  C    2.123384   1.400820   0.000000
     4  C    2.154733   1.404196   2.423948   0.000000
     5  H    2.378092   2.120652   1.096792   3.325954   0.000000
     6  O    3.321578   2.407641   1.271329   2.934560   2.002114
     7  C    3.394122   2.420375   2.833473   1.383728   3.873427
     8  H    2.457669   2.142576   3.344697   1.084927   4.098908
     9  C    3.835964   2.764400   2.589496   2.367851   3.647875
    10  H    4.266791   3.371037   3.788571   2.154890   4.771518
    11  H    4.869030   3.789531   3.397169   3.350844   4.365519
    12  H    3.720084   2.745243   2.602708   2.677068   3.628428
                    6          7          8          9         10
     6  O    0.000000
     7  C    2.707589   0.000000
     8  H    3.973822   2.148085   0.000000
     9  C    1.953517   1.394946   3.359501   0.000000
    10  H    3.563133   1.082528   2.512744   2.166199   0.000000
    11  H    2.437528   2.157633   4.278352   1.083407   2.513434
    12  H    2.141231   2.130707   3.687903   1.081554   3.042138
                   11         12
    11  H    0.000000
    12  H    1.824839   0.000000
 Symmetry turned off by external request.
 Stoichiometry    C5H6O
 Framework group  C1[X(C5H6O)]
 Deg. of freedom    30
 Full point group                 C1      NOp   1
 Rotational constants (GHZ):           5.5579959           4.6827408           2.7129173
 Standard basis: def2TZVP (5D, 7F)
 The following finite field(s) will be applied:
 An electric field of              0.0079  0.0040  0.0046
   222 basis functions,   354 primitive gaussians,   252 cartesian basis functions
    22 alpha electrons       22 beta electrons
       nuclear repulsion energy       217.9842289353 Hartrees.
 NAtoms=   12 NActive=   12 NUniq=   12 SFac= 1.00D+00 NAtFMM=   60 NAOKFM=F Big=F
 Integral buffers will be    131072 words long.
 Raffenetti 2 integral format.
 Two-electron integral symmetry is turned off.
 One-electron integrals computed using PRISM.
   1 Symmetry operations used in ECPInt.
 ECPInt:  NShTT=    4095 NPrTT=   12396 LenC2=    4074 LenP2D=   10365.
 LDataN:  DoStor=T MaxTD1= 6 Len=  172
 NBasis=   222 RedAO= T EigKep=  1.09D-04  NBF=   222
 NBsUse=   222 1.00D-06 EigRej= -1.00D+00 NBFU=   222
 The nuclear repulsion energy is now       218.9846043166 hartrees.
 Initial guess from the checkpoint file:  "checkpoint.chk"
 B after Tr=     0.005183    0.012554   -0.001689
         Rot=    0.999975   -0.004533    0.001758   -0.005228 Ang=  -0.82 deg.
 Keep R1 ints in memory in canonical form, NReq=319363861.
 Requested convergence on RMS density matrix=1.00D-08 within 128 cycles.
 Requested convergence on MAX density matrix=1.00D-06.
 Requested convergence on             energy=1.00D-06.
 No special actions if energy rises.
 SCF Done:  E(RB3LYP) =  -269.398151655     A.U. after   11 cycles
            NFock= 11  Conv=0.38D-08     -V/T= 2.0050
   1 Symmetry operations used in ECPInt.
 ECPInt:  NShTT=    4095 NPrTT=   12396 LenC2=    4074 LenP2D=   10365.
 LDataN:  DoStor=T MaxTD1= 7 Len=  274
 Calling FoFJK, ICntrl=      2127 FMM=F ISym2X=0 I1Cent= 0 IOpClX= 0 NMat=1 NMatS=1 NMatT=0.
 -------------------------------------------------------------------
 Center     Atomic                   Forces (Hartrees/Bohr)
 Number     Number              X              Y              Z
 -------------------------------------------------------------------
      1        1           0.000174423   -0.000078810   -0.000000657
      2        6          -0.000154698   -0.001329595   -0.000002603
      3        6           0.000003892    0.001446937   -0.000081126
      4        6          -0.000028328   -0.000009597    0.000019096
      5        1           0.000002054   -0.000000083    0.000000173
      6        8          -0.000011989   -0.000024775    0.000076427
      7        6          -0.000016530    0.000012616   -0.000019717
      8        1          -0.000001532    0.000000197    0.000001418
      9        6           0.000052650   -0.000006979    0.000005960
     10        1          -0.000009676   -0.000004043   -0.000001914
     11        1          -0.000001139    0.000000829    0.000000372
     12        1          -0.000009125   -0.000006696    0.000002570
 -------------------------------------------------------------------
 Cartesian Forces:  Max     0.001446937 RMS     0.000330841
 -----------------------------------------------------------------------------------------------
                       Internal Coordinate Forces (Hartree/Bohr or radian)
  Cent   Atom   N1       Length/X         N2         Alpha/Y        N3         Beta/Z          J
 -----------------------------------------------------------------------------------------------
      1  H 
      2  C        1   0.000001(     1)
      3  C        2  -0.000007(     2)      1   0.000064(    12)
      4  C        2   0.000011(     3)      1   0.000078(    13)      3   0.000085(    22)     0
      5  H        3   0.000001(     4)      2   0.000003(    14)      1   0.000037(    23)     0
      6  O        3   0.000074(     5)      2  -0.000067(    15)      5   0.000038(    24)     0
      7  C        4  -0.000013(     6)      2  -0.000066(    16)      1   0.000042(    25)     0
      8  H        4   0.000000(     7)      2   0.000004(    17)      7   0.000001(    26)     0
      9  C        7   0.000040(     8)      4  -0.000023(    18)      2   0.000044(    27)     0
     10  H        7   0.000002(     9)      4  -0.000007(    19)      9   0.000017(    28)     0
     11  H        9   0.000000(    10)      7  -0.000003(    20)      4  -0.000018(    29)     0
     12  H        9   0.000004(    11)      7  -0.000007(    21)     11  -0.000018(    30)     0
 -----------------------------------------------------------------------------------------------
 Internal  Forces:  Max     0.000085154 RMS     0.000037289

 GradGradGradGradGradGradGradGradGradGradGradGradGradGradGradGradGradGrad
 Berny optimization.
 Search for a saddle point.
 Step number   2 out of a maximum of   40
 All quantities printed in internal units (Hartrees-Bohrs-Radians)
 Swapping is turned off.
 Update second derivatives using D2CorN and points    1    2
 ITU=  0  0
     Eigenvalues ---   -1.05475   0.02226   0.02887   0.04497   0.04724
     Eigenvalues ---    0.05748   0.11332   0.12017   0.14402   0.15511
     Eigenvalues ---    0.18056   0.20274   0.22987   0.25637   0.29652
     Eigenvalues ---    0.32245   0.34204   0.35108   0.35288   0.35924
     Eigenvalues ---    0.36223   0.38803   0.41950   0.44061   0.49081
     Eigenvalues ---    0.52467   0.56614   0.70504   0.98468   1.91259
 Eigenvectors required to have negative eigenvalues:
                          A7        A4        A3        R6        D12
   1                    0.40529  -0.40486  -0.37515  -0.26840   0.26822
                          R9        A9        A6        R3        D11
   1                   -0.26233   0.25749   0.22172   0.21047   0.20488
 RFO step:  Lambda0=2.049231862D-08 Lambda=-1.84751024D-07.
 Linear search not attempted -- option 19 set.
 Variable       Old X    -DE/DX   Delta X   Delta X   Delta X     New X
                                 (Linear)    (Quad)   (Total)
    R2        2.04255   0.00000   0.00000  -0.00000  -0.00000   2.04254
    R3        2.64717  -0.00001   0.00000   0.00004   0.00004   2.64721
    R4        2.65355   0.00001   0.00000  -0.00004  -0.00004   2.65351
    R5        2.07264   0.00000   0.00000   0.00002   0.00002   2.07266
    R6        2.40246   0.00007   0.00000   0.00006   0.00006   2.40252
    R7        2.61487  -0.00001   0.00000   0.00005   0.00005   2.61492
    R8        2.05022   0.00000   0.00000   0.00000   0.00000   2.05022
    R9        2.63607   0.00004   0.00000  -0.00001  -0.00001   2.63606
   R10        2.04568   0.00000   0.00000   0.00001   0.00001   2.04569
   R11        2.04734   0.00000   0.00000   0.00000   0.00000   2.04735
   R12        2.04384   0.00000   0.00000  -0.00001  -0.00001   2.04383
    A3        2.04330   0.00006   0.00000   0.00005   0.00005   2.04335
    A4        2.08873   0.00008   0.00000   0.00027   0.00027   2.08900
    A5        2.01912   0.00000   0.00000  -0.00002  -0.00002   2.01910
    A6        2.24307  -0.00007   0.00000  -0.00000  -0.00000   2.24306
    A7        2.10295  -0.00007   0.00000  -0.00001  -0.00001   2.10294
    A8        2.06372   0.00000   0.00000   0.00003   0.00003   2.06375
    A9        2.04016  -0.00002   0.00000   0.00011   0.00011   2.04026
   A10        2.11731  -0.00001   0.00000  -0.00006  -0.00006   2.11725
   A11        2.10376  -0.00000   0.00000  -0.00002  -0.00002   2.10374
   A12        2.06238  -0.00001   0.00000   0.00002   0.00002   2.06240
    D4        2.76287   0.00009   0.00000   0.00175   0.00175   2.76462
    D5        0.22160   0.00004   0.00000   0.00126   0.00126   0.22286
    D6        2.98418   0.00004   0.00000   0.00004   0.00004   2.98422
    D7       -3.12787   0.00004   0.00000  -0.00105  -0.00105  -3.12892
    D8        2.96388   0.00000   0.00000   0.00000   0.00000   2.96388
    D9       -0.36964   0.00004   0.00000  -0.00043  -0.00043  -0.37007
   D10        3.02155   0.00002   0.00000   0.00033   0.00033   3.02188
   D11        2.87677  -0.00002   0.00000   0.00005   0.00005   2.87682
   D12        2.62646  -0.00002   0.00000   0.00005   0.00005   2.62651
         Item               Value     Threshold  Converged?
 Maximum Force            0.000085     0.000450     YES
 RMS     Force            0.000037     0.000300     YES
 Maximum Displacement     0.001754     0.001800     YES
 RMS     Displacement     0.000454     0.001200     YES
 Predicted change in Energy=-8.212935D-08
 Optimization completed.
    -- Stationary point found.
                       ----------------------------
                       !   Optimized Parameters   !
                       ! (Angstroms and Degrees)  !
 ----------------------                            ----------------------
 !      Name          Value   Derivative information (Atomic Units)     !
 ------------------------------------------------------------------------
 !       R2          1.0809   -DE/DX =    0.0                           !
 !       R3          1.4008   -DE/DX =    0.0                           !
 !       R4          1.4042   -DE/DX =    0.0                           !
 !       R5          1.0968   -DE/DX =    0.0                           !
 !       R6          1.2713   -DE/DX =    0.0001                        !
 !       R7          1.3837   -DE/DX =    0.0                           !
 !       R8          1.0849   -DE/DX =    0.0                           !
 !       R9          1.3949   -DE/DX =    0.0                           !
 !       R10         1.0825   -DE/DX =    0.0                           !
 !       R11         1.0834   -DE/DX =    0.0                           !
 !       R12         1.0816   -DE/DX =    0.0                           !
 !       A3        117.0725   -DE/DX =    0.0001                        !
 !       A4        119.6754   -DE/DX =    0.0001                        !
 !       A5        115.6868   -DE/DX =    0.0                           !
 !       A6        128.5182   -DE/DX =   -0.0001                        !
 !       A7        120.4901   -DE/DX =   -0.0001                        !
 !       A8        118.2423   -DE/DX =    0.0                           !
 !       A9        116.8923   -DE/DX =    0.0                           !
 !       A10       121.313    -DE/DX =    0.0                           !
 !       A11       120.5364   -DE/DX =    0.0                           !
 !       A12       118.1655   -DE/DX =    0.0                           !
 !       D4        158.3007   -DE/DX =    0.0001                        !
 !       D5         12.6967   -DE/DX =    0.0                           !
 !       D6        170.9812   -DE/DX =    0.0                           !
 !       D7       -179.214    -DE/DX =    0.0                           !
 !       D8        169.8177   -DE/DX =    0.0                           !
 !       D9        -21.1785   -DE/DX =    0.0                           !
 !       D10       173.122    -DE/DX =    0.0                           !
 !       D11       164.8267   -DE/DX =    0.0                           !
 !       D12       150.4849   -DE/DX =    0.0                           !
 ------------------------------------------------------------------------
 GradGradGradGradGradGradGradGradGradGradGradGradGradGradGradGradGradGrad

 ---------------------------------------------------------------------------------------------------
                            Z-MATRIX (ANGSTROMS AND DEGREES)
   CD    Cent   Atom    N1       Length/X        N2       Alpha/Y        N3        Beta/Z          J
 ---------------------------------------------------------------------------------------------------
      1      1  H 
      2      2  C        1   1.080868(     1)
      3      3  C        2   1.400820(     2)      1  117.072(    12)
      4      4  C        2   1.404196(     3)      1  119.675(    13)      3  158.301(    22)      0
      5      5  H        3   1.096792(     4)      2  115.687(    14)      1   12.697(    23)      0
      6      6  O        3   1.271329(     5)      2  128.518(    15)      5  170.981(    24)      0
      7      7  C        4   1.383728(     6)      2  120.490(    16)      1 -179.214(    25)      0
      8      8  H        4   1.084927(     7)      2  118.242(    17)      7  169.818(    26)      0
      9      9  C        7   1.394946(     8)      4  116.892(    18)      2  -21.179(    27)      0
     10     10  H        7   1.082528(     9)      4  121.313(    19)      9  173.122(    28)      0
     11     11  H        9   1.083407(    10)      7  120.536(    20)      4  164.827(    29)      0
     12     12  H        9   1.081554(    11)      7  118.165(    21)     11  150.485(    30)      0
 ---------------------------------------------------------------------------------------------------
                         Z-Matrix orientation:                         
 ---------------------------------------------------------------------
 Center     Atomic      Atomic             Coordinates (Angstroms)
 Number     Number       Type             X           Y           Z
 ---------------------------------------------------------------------
      1          1           0        0.000000    0.000000    0.000000
      2          6           0        0.000000    0.000000    1.080868
      3          6           0        1.247334    0.000000    1.718406
      4          6           0       -1.133573    0.451087    1.776065
      5          1           0        2.109490    0.217241    1.076187
      6          8           0        1.500548   -0.063807    2.962628
      7          6           0       -1.145859    0.473581    3.159556
      8          1           0       -1.924083    0.933601    1.210962
      9          6           0       -0.234080   -0.356224    3.812208
     10          1           0       -1.753116    1.184399    3.705306
     11          1           0       -0.016833   -0.215445    4.864233
     12          1           0       -0.121818   -1.371244    3.455991
 ---------------------------------------------------------------------
                    Distance matrix (angstroms):
                    1          2          3          4          5
     1  H    0.000000
     2  C    1.080868   0.000000
     3  C    2.123384   1.400820   0.000000
     4  C    2.154733   1.404196   2.423948   0.000000
     5  H    2.378092   2.120652   1.096792   3.325954   0.000000
     6  O    3.321578   2.407641   1.271329   2.934560   2.002114
     7  C    3.394122   2.420375   2.833473   1.383728   3.873427
     8  H    2.457669   2.142576   3.344697   1.084927   4.098908
     9  C    3.835964   2.764400   2.589496   2.367851   3.647875
    10  H    4.266791   3.371037   3.788571   2.154890   4.771518
    11  H    4.869030   3.789531   3.397169   3.350844   4.365519
    12  H    3.720084   2.745243   2.602708   2.677068   3.628428
                    6          7          8          9         10
     6  O    0.000000
     7  C    2.707589   0.000000
     8  H    3.973822   2.148085   0.000000
     9  C    1.953517   1.394946   3.359501   0.000000
    10  H    3.563133   1.082528   2.512744   2.166199   0.000000
    11  H    2.437528   2.157633   4.278352   1.083407   2.513434
    12  H    2.141231   2.130707   3.687903   1.081554   3.042138
                   11         12
    11  H    0.000000
    12  H    1.824839   0.000000
 Symmetry turned off by external request.
 Stoichiometry    C5H6O
 Framework group  C1[X(C5H6O)]
 Deg. of freedom    30
 Full point group                 C1      NOp   1
 Rotational constants (GHZ):           5.5579959           4.6827408           2.7129173

 **********************************************************************

            Population analysis using the SCF density.

 **********************************************************************

 Alpha  occ. eigenvalues --  -19.16706 -10.27417 -10.24639 -10.21261 -10.18852
 Alpha  occ. eigenvalues --  -10.18735  -1.06699  -0.84782  -0.77804  -0.68830
 Alpha  occ. eigenvalues --   -0.62930  -0.54771  -0.53050  -0.49152  -0.48126
 Alpha  occ. eigenvalues --   -0.46457  -0.41602  -0.40189  -0.39487  -0.35148
 Alpha  occ. eigenvalues --   -0.30939  -0.23521
 Alpha virt. eigenvalues --   -0.09154  -0.01847   0.02422   0.03114   0.04952
 Alpha virt. eigenvalues --    0.06039   0.08243   0.09205   0.11626   0.12947
 Alpha virt. eigenvalues --    0.15363   0.17698   0.18608   0.20422   0.20489
 Alpha virt. eigenvalues --    0.21673   0.22916   0.24798   0.26298   0.27063
 Alpha virt. eigenvalues --    0.28951   0.31311   0.32018   0.33826   0.36540
 Alpha virt. eigenvalues --    0.37555   0.38212   0.40415   0.40622   0.41960
 Alpha virt. eigenvalues --    0.42829   0.43665   0.44053   0.45883   0.47947
 Alpha virt. eigenvalues --    0.50778   0.52062   0.54362   0.54747   0.55702
 Alpha virt. eigenvalues --    0.59523   0.63579   0.66469   0.68300   0.73308
 Alpha virt. eigenvalues --    0.77223   0.80441   0.84690   0.86158   0.87148
 Alpha virt. eigenvalues --    0.90264   0.91797   0.94318   0.94536   0.96236
 Alpha virt. eigenvalues --    0.99573   1.01985   1.05513   1.09129   1.09987
 Alpha virt. eigenvalues --    1.13349   1.15337   1.17270   1.21473   1.21609
 Alpha virt. eigenvalues --    1.27309   1.30137   1.32792   1.37743   1.38102
 Alpha virt. eigenvalues --    1.41457   1.42310   1.44594   1.45365   1.49206
 Alpha virt. eigenvalues --    1.50987   1.55953   1.58065   1.61596   1.63135
 Alpha virt. eigenvalues --    1.65238   1.66466   1.71372   1.76223   1.76708
 Alpha virt. eigenvalues --    1.79489   1.81193   1.83781   1.87676   1.89382
 Alpha virt. eigenvalues --    1.92228   1.95154   2.03982   2.04187   2.08007
 Alpha virt. eigenvalues --    2.11965   2.13697   2.18290   2.19033   2.23773
 Alpha virt. eigenvalues --    2.25711   2.30123   2.36506   2.40683   2.43166
 Alpha virt. eigenvalues --    2.47530   2.49501   2.51035   2.53495   2.54570
 Alpha virt. eigenvalues --    2.56307   2.59474   2.60900   2.63598   2.66472
 Alpha virt. eigenvalues --    2.68570   2.69039   2.74747   2.76665   2.76989
 Alpha virt. eigenvalues --    2.79698   2.81915   2.82890   2.84537   2.86687
 Alpha virt. eigenvalues --    2.89645   2.93447   2.93862   2.96647   2.99589
 Alpha virt. eigenvalues --    3.01132   3.02999   3.04552   3.10077   3.11856
 Alpha virt. eigenvalues --    3.13538   3.16442   3.18072   3.20916   3.21590
 Alpha virt. eigenvalues --    3.23705   3.26152   3.27438   3.32537   3.34641
 Alpha virt. eigenvalues --    3.38201   3.40061   3.41632   3.42686   3.45753
 Alpha virt. eigenvalues --    3.47951   3.50304   3.56194   3.61259   3.62026
 Alpha virt. eigenvalues --    3.67300   3.84052   3.87419   3.90271   3.92129
 Alpha virt. eigenvalues --    3.95314   4.00966   4.02693   4.06779   4.09641
 Alpha virt. eigenvalues --    4.13920   4.16638   4.24729   4.28214   4.31046
 Alpha virt. eigenvalues --    4.37052   4.42137   4.47844   4.52661   4.63214
 Alpha virt. eigenvalues --    4.65100   4.70510   4.79730   4.84019   4.85954
 Alpha virt. eigenvalues --    5.04720   5.13783   5.22782   5.27143   5.47592
 Alpha virt. eigenvalues --    5.57745   5.94359   6.16764   6.29092   6.48366
 Alpha virt. eigenvalues --    6.70297   6.75330   6.93842   7.05817  22.04549
 Alpha virt. eigenvalues --   22.32416  22.48254  22.67654  22.86240  43.78890
          Condensed to atoms (all electrons):
               1          2          3          4          5          6
     1  H    0.532476   0.411068  -0.039223  -0.041327  -0.001062   0.005609
     2  C    0.411068   5.208361   0.434226   0.465407  -0.095767  -0.129433
     3  C   -0.039223   0.434226   4.686371  -0.018320   0.408436   0.486628
     4  C   -0.041327   0.465407  -0.018320   4.863444  -0.000642  -0.012067
     5  H   -0.001062  -0.095767   0.408436  -0.000642   0.647376  -0.039281
     6  O    0.005609  -0.129433   0.486628  -0.012067  -0.039281   8.055089
     7  C    0.008759  -0.029036  -0.063623   0.487344  -0.003536  -0.028543
     8  H   -0.005906  -0.045304   0.004005   0.424955  -0.000713  -0.000675
     9  C    0.000331  -0.001551  -0.046436  -0.082154   0.003089   0.065284
    10  H   -0.000172   0.009274  -0.002611  -0.049413   0.000091   0.001225
    11  H    0.000018  -0.000590   0.001080   0.010614  -0.000106  -0.003257
    12  H    0.000129   0.028995  -0.009319  -0.032594  -0.001329  -0.050642
               7          8          9         10         11         12
     1  H    0.008759  -0.005906   0.000331  -0.000172   0.000018   0.000129
     2  C   -0.029036  -0.045304  -0.001551   0.009274  -0.000590   0.028995
     3  C   -0.063623   0.004005  -0.046436  -0.002611   0.001080  -0.009319
     4  C    0.487344   0.424955  -0.082154  -0.049413   0.010614  -0.032594
     5  H   -0.003536  -0.000713   0.003089   0.000091  -0.000106  -0.001329
     6  O   -0.028543  -0.000675   0.065284   0.001225  -0.003257  -0.050642
     7  C    5.011884  -0.044417   0.490255   0.422721  -0.048656  -0.018517
     8  H   -0.044417   0.512796   0.010922  -0.005906  -0.000221  -0.000185
     9  C    0.490255   0.010922   4.859193  -0.049418   0.392610   0.427973
    10  H    0.422721  -0.005906  -0.049418   0.568393  -0.006381   0.005698
    11  H   -0.048656  -0.000221   0.392610  -0.006381   0.591791  -0.033791
    12  H   -0.018517  -0.000185   0.427973   0.005698  -0.033791   0.533584
 Mulliken charges:
               1
     1  H    0.129301
     2  C   -0.255651
     3  C    0.158787
     4  C   -0.015248
     5  H    0.083443
     6  O   -0.349936
     7  C   -0.184635
     8  H    0.150649
     9  C   -0.070098
    10  H    0.106498
    11  H    0.096890
    12  H    0.149998
 Sum of Mulliken charges =  -0.00000
 Mulliken charges with hydrogens summed into heavy atoms:
               1
     2  C   -0.126349
     3  C    0.242230
     4  C    0.135401
     6  O   -0.349936
     7  C   -0.078137
     9  C    0.176790
 Electronic spatial extent (au):  <R**2>=           1422.3676
 Charge=             -0.0000 electrons
 Dipole moment (field-independent basis, Debye):
    X=             -2.3351    Y=             -0.0932    Z=             -1.2359  Tot=              2.6436
 Quadrupole moment (field-independent basis, Debye-Ang):
   XX=            -37.3908   YY=            -36.5644   ZZ=            -37.7934
   XY=             -1.6725   XZ=             -7.7537   YZ=             -1.1825
 Traceless Quadrupole moment (field-independent basis, Debye-Ang):
   XX=             -0.1413   YY=              0.6851   ZZ=             -0.5438
   XY=             -1.6725   XZ=             -7.7537   YZ=             -1.1825
 Octapole moment (field-independent basis, Debye-Ang**2):
  XXX=             -9.2095  YYY=            -11.6924  ZZZ=           -253.4632  XYY=             -2.4309
  XXY=              1.3318  XXZ=            -99.2475  XZZ=            -26.5369  YZZ=             -7.9196
  YYZ=            -86.4463  XYZ=             -3.9528
 Hexadecapole moment (field-independent basis, Debye-Ang**3):
 XXXX=           -297.6681 YYYY=            -76.5729 ZZZZ=          -1454.4014 XXXY=             15.7740
 XXXZ=            -14.6798 YYYX=             22.2539 YYYZ=            -18.3975 ZZZX=            -74.2296
 ZZZY=            -27.1923 XXYY=            -59.2751 XXZZ=           -354.9879 YYZZ=           -267.0479
 XXYZ=              6.2223 YYXZ=             -1.1902 ZZXY=             -5.2343
 N-N= 2.189846043166D+02 E-N=-1.064919451739D+03  KE= 2.680491336069D+02
 1\1\GINC-BHC0107\FTS\RB3LYP\def2TZVP\C5H6O1\DHANAWAY\21-Mar-2022\1\\# 
 Opt=(TS, CalcFC, noeigentest, Z-matrix, MaxStep=10) geom=allcheckpoint
  guess=read Field=read NoSymm B3LYP/Def2TZVP\\ts_zmat_initalOpt\\0,1\H
 \C,1,R2\C,2,R3,1,A3\C,2,R4,1,A4,3,D4,0\H,3,R5,2,A5,1,D5,0\O,3,R6,2,A6,
 5,D6,0\C,4,R7,2,A7,1,D7,0\H,4,R8,2,A8,7,D8,0\C,7,R9,4,A9,2,D9,0\H,7,R1
 0,4,A10,9,D10,0\H,9,R11,7,A11,4,D11,0\H,9,R12,7,A12,11,D12,0\\R2=1.080
 86847\R3=1.40081991\R4=1.4041958\R5=1.09679166\R6=1.27132893\R7=1.3837
 2821\R8=1.08492744\R9=1.39494588\R10=1.08252789\R11=1.08340672\R12=1.0
 8155369\A3=117.07248631\A4=119.67536185\A5=115.68678579\A6=128.5181985
 8\A7=120.49013814\A8=118.2423193\A9=116.89234228\A10=121.31297124\A11=
 120.5364387\A12=118.16546585\D4=158.30070885\D5=12.69667922\D6=170.981
 19059\D7=-179.21400929\D8=169.81767697\D9=-21.17854783\D10=173.1220471
 1\D11=164.82671019\D12=150.48493218\\Version=ES64L-G16RevA.03\HF=-269.
 3981517\RMSD=3.819e-09\RMSF=3.308e-04\Dipole=-0.9186894,-0.0366596,-0.
 4862304\Quadrupole=-0.1050318,0.50937,-0.4043383,-1.2434967,-5.7647103
 ,-0.8791828\PG=C01 [X(C5H6O1)]\\@


 I DON'T PRETEND TO UNDERSTAND THE UNIVERSE --
 IT'S A GREAT DEAL BIGGER THAN I AM.
       -- ATTR. TO WILLIAM ALLINGHAM (1828-89)
 Job cpu time:       0 days  0 hours 36 minutes 43.2 seconds.
 Elapsed time:       0 days  0 hours  3 minutes 17.1 seconds.
 File lengths (MBytes):  RWF=     53 Int=      0 D2E=      0 Chk=     32 Scr=      1
 Normal termination of Gaussian 16 at Mon Mar 21 08:39:00 2022.
