 Entering Gaussian System, Link 0=g16
 Input=int_zmat_field_N25.gjf
 Output=int_zmat_field_N25.out
 Initial command:
 /software/gaussian/g16-a03/l1.exe "/local_scratch/11171963/Gau-29814.inp" -scrdir="/local_scratch/11171963/"
 Entering Link 1 = /software/gaussian/g16-a03/l1.exe PID=     29825.
  
 Copyright (c) 1988,1990,1992,1993,1995,1998,2003,2009,2016,
            Gaussian, Inc.  All Rights Reserved.
  
 This is part of the Gaussian(R) 16 program.  It is based on
 the Gaussian(R) 09 system (copyright 2009, Gaussian, Inc.),
 the Gaussian(R) 03 system (copyright 2003, Gaussian, Inc.),
 the Gaussian(R) 98 system (copyright 1998, Gaussian, Inc.),
 the Gaussian(R) 94 system (copyright 1995, Gaussian, Inc.),
 the Gaussian 92(TM) system (copyright 1992, Gaussian, Inc.),
 the Gaussian 90(TM) system (copyright 1990, Gaussian, Inc.),
 the Gaussian 88(TM) system (copyright 1988, Gaussian, Inc.),
 the Gaussian 86(TM) system (copyright 1986, Carnegie Mellon
 University), and the Gaussian 82(TM) system (copyright 1983,
 Carnegie Mellon University). Gaussian is a federally registered
 trademark of Gaussian, Inc.
  
 This software contains proprietary and confidential information,
 including trade secrets, belonging to Gaussian, Inc.
  
 This software is provided under written license and may be
 used, copied, transmitted, or stored only in accord with that
 written license.
  
 The following legend is applicable only to US Government
 contracts under FAR:
  
                    RESTRICTED RIGHTS LEGEND
  
 Use, reproduction and disclosure by the US Government is
 subject to restrictions as set forth in subparagraphs (a)
 and (c) of the Commercial Computer Software - Restricted
 Rights clause in FAR 52.227-19.
  
 Gaussian, Inc.
 340 Quinnipiac St., Bldg. 40, Wallingford CT 06492
  
  
 ---------------------------------------------------------------
 Warning -- This program may not be used in any manner that
 competes with the business of Gaussian, Inc. or will provide
 assistance to any competitor of Gaussian, Inc.  The licensee
 of this program is prohibited from giving any competitor of
 Gaussian, Inc. access to this program.  By using this program,
 the user acknowledges that Gaussian, Inc. is engaged in the
 business of creating and licensing software in the field of
 computational chemistry and represents and warrants to the
 licensee that it is not a competitor of Gaussian, Inc. and that
 it will not use this program in any manner prohibited above.
 ---------------------------------------------------------------
  

 Cite this work as:
 Gaussian 16, Revision A.03,
 M. J. Frisch, G. W. Trucks, H. B. Schlegel, G. E. Scuseria, 
 M. A. Robb, J. R. Cheeseman, G. Scalmani, V. Barone, 
 G. A. Petersson, H. Nakatsuji, X. Li, M. Caricato, A. V. Marenich, 
 J. Bloino, B. G. Janesko, R. Gomperts, B. Mennucci, H. P. Hratchian, 
 J. V. Ortiz, A. F. Izmaylov, J. L. Sonnenberg, D. Williams-Young, 
 F. Ding, F. Lipparini, F. Egidi, J. Goings, B. Peng, A. Petrone, 
 T. Henderson, D. Ranasinghe, V. G. Zakrzewski, J. Gao, N. Rega, 
 G. Zheng, W. Liang, M. Hada, M. Ehara, K. Toyota, R. Fukuda, 
 J. Hasegawa, M. Ishida, T. Nakajima, Y. Honda, O. Kitao, H. Nakai, 
 T. Vreven, K. Throssell, J. A. Montgomery, Jr., J. E. Peralta, 
 F. Ogliaro, M. J. Bearpark, J. J. Heyd, E. N. Brothers, K. N. Kudin, 
 V. N. Staroverov, T. A. Keith, R. Kobayashi, J. Normand, 
 K. Raghavachari, A. P. Rendell, J. C. Burant, S. S. Iyengar, 
 J. Tomasi, M. Cossi, J. M. Millam, M. Klene, C. Adamo, R. Cammi, 
 J. W. Ochterski, R. L. Martin, K. Morokuma, O. Farkas, 
 J. B. Foresman, and D. J. Fox, Gaussian, Inc., Wallingford CT, 2016.
 
 ******************************************
 Gaussian 16:  ES64L-G16RevA.03 25-Dec-2016
                10-Jun-2022 
 ******************************************
 %nprocshared=12
 Will use up to   12 processors via shared memory.
 %chk=checkpoint.chk
 %mem=12GB
 ----------------------------------------------------------------------
 # Opt=(Z-matrix, MaxStep=10) B3LYP/Def2TZVP Field=read NoSymm freq=nor
 aman pop=none
 ----------------------------------------------------------------------
 1/8=10,10=7,18=40,26=3,38=1/1,3;
 2/12=2,15=1,17=6,18=5,29=3,40=1/2;
 3/5=44,7=101,11=2,14=-6,25=1,30=1,71=1,74=-5/1,2,3;
 4//1;
 5/5=2,38=5/2;
 7/29=1,30=1/1,2,3,16;
 1/8=10,10=7,18=40,26=3/3(2);
 2/15=1,29=3/2;
 99//99;
 2/15=1,29=3/2;
 3/5=44,7=101,11=2,14=-2,25=1,30=1,71=1,74=-5/1,2,3;
 4/5=5,16=3,69=1/1;
 5/5=2,38=5/2;
 7/30=1/1,2,3,16;
 1/8=10,18=40,26=3/3(-5);
 2/15=1,29=3/2;
 99/9=1/99;
 ------------------
 int_zmat_initalOpt
 ------------------
 Symbolic Z-matrix:
 Charge =  0 Multiplicity = 1
 C
 C                    1    R2
 C                    1    R3       2    A3
 C                    1    R4       2    A4       3    D4       0
 H                    2    R5       1    A5       3    D5       0
 C                    2    R6       1    A6       5    D6       0
 O                    3    R7       1    A7       2    D7       0
 H                    3    R8       1    A8       7    D8       0
 H                    3    R9       1    A9       7    D9       0
 C                    4    R10      1    A10      2    D10      0
 C                    4    R11      1    A11      10   D11      0
 H                    4    R12      1    A12      10   D12      0
 H                    6    R13      2    A13      1    D13      0
 H                    6    R14      2    A14      13   D14      0
 H                    6    R15      2    A15      13   D15      0
 H                    10   R16      4    A16      1    D16      0
 H                    10   R17      4    A17      16   D17      0
 C                    11   R18      4    A18      1    D18      0
 H                    11   R19      4    A19      18   D19      0
 H                    18   R20      11   A20      4    D20      0
 H                    18   R21      11   A21      20   D21      0
       Variables:
  R2                    1.3278                   
  R3                    1.51627                  
  R4                    1.5266                   
  R5                    1.086                    
  R6                    1.49924                  
  R7                    1.42565                  
  R8                    1.09206                  
  R9                    1.09915                  
  R10                   1.53265                  
  R11                   1.499                    
  R12                   1.09959                  
  R13                   1.09003                  
  R14                   1.09441                  
  R15                   1.0942                   
  R16                   1.08929                  
  R17                   1.09849                  
  R18                   1.32762                  
  R19                   1.08619                  
  R20                   1.08303                  
  R21                   1.08257                  
  A3                  126.50411                  
  A4                  127.35314                  
  A5                  118.75148                  
  A6                  125.78011                  
  A7                  106.1934                   
  A8                  113.53867                  
  A9                  110.97614                  
  A10                 101.14614                  
  A11                 115.93038                  
  A12                 107.04803                  
  A13                 112.56648                  
  A14                 110.97917                  
  A15                 110.93573                  
  A16                 114.00939                  
  A17                 110.66495                  
  A18                 126.55847                  
  A19                 115.12804                  
  A20                 122.69597                  
  A21                 120.97623                  
  D4                 -178.85274                  
  D5                  178.67023                  
  D6                 -179.96343                  
  D7                  177.612                    
  D8                 -118.25622                  
  D9                  119.80686                  
  D10                 160.51472                  
  D11                -128.04162                  
  D12                 111.86101                  
  D13                   1.22611                  
  D14                -120.85816                  
  D15                 120.90689                  
  D16                 152.23323                  
  D17                 123.22075                  
  D18                 127.61286                  
  D19                 178.32524                  
  D20                  -0.91149                  
  D21                 179.94043                  
 

 GradGradGradGradGradGradGradGradGradGradGradGradGradGradGradGradGradGrad
 Berny optimization.
 Initialization pass.
                       ----------------------------
                       !    Initial Parameters    !
                       ! (Angstroms and Degrees)  !
 ----------------------                            ----------------------
 !      Name          Value   Derivative information (Atomic Units)     !
 ------------------------------------------------------------------------
 !       R2          1.3278   estimate D2E/DX2                          !
 !       R3          1.5163   estimate D2E/DX2                          !
 !       R4          1.5266   estimate D2E/DX2                          !
 !       R5          1.086    estimate D2E/DX2                          !
 !       R6          1.4992   estimate D2E/DX2                          !
 !       R7          1.4257   estimate D2E/DX2                          !
 !       R8          1.0921   estimate D2E/DX2                          !
 !       R9          1.0992   estimate D2E/DX2                          !
 !       R10         1.5327   estimate D2E/DX2                          !
 !       R11         1.499    estimate D2E/DX2                          !
 !       R12         1.0996   estimate D2E/DX2                          !
 !       R13         1.09     estimate D2E/DX2                          !
 !       R14         1.0944   estimate D2E/DX2                          !
 !       R15         1.0942   estimate D2E/DX2                          !
 !       R16         1.0893   estimate D2E/DX2                          !
 !       R17         1.0985   estimate D2E/DX2                          !
 !       R18         1.3276   estimate D2E/DX2                          !
 !       R19         1.0862   estimate D2E/DX2                          !
 !       R20         1.083    estimate D2E/DX2                          !
 !       R21         1.0826   estimate D2E/DX2                          !
 !       A3        126.5041   estimate D2E/DX2                          !
 !       A4        127.3531   estimate D2E/DX2                          !
 !       A5        118.7515   estimate D2E/DX2                          !
 !       A6        125.7801   estimate D2E/DX2                          !
 !       A7        106.1934   estimate D2E/DX2                          !
 !       A8        113.5387   estimate D2E/DX2                          !
 !       A9        110.9761   estimate D2E/DX2                          !
 !       A10       101.1461   estimate D2E/DX2                          !
 !       A11       115.9304   estimate D2E/DX2                          !
 !       A12       107.048    estimate D2E/DX2                          !
 !       A13       112.5665   estimate D2E/DX2                          !
 !       A14       110.9792   estimate D2E/DX2                          !
 !       A15       110.9357   estimate D2E/DX2                          !
 !       A16       114.0094   estimate D2E/DX2                          !
 !       A17       110.6649   estimate D2E/DX2                          !
 !       A18       126.5585   estimate D2E/DX2                          !
 !       A19       115.128    estimate D2E/DX2                          !
 !       A20       122.696    estimate D2E/DX2                          !
 !       A21       120.9762   estimate D2E/DX2                          !
 !       D4       -178.8527   estimate D2E/DX2                          !
 !       D5        178.6702   estimate D2E/DX2                          !
 !       D6       -179.9634   estimate D2E/DX2                          !
 !       D7        177.612    estimate D2E/DX2                          !
 !       D8       -118.2562   estimate D2E/DX2                          !
 !       D9        119.8069   estimate D2E/DX2                          !
 !       D10       160.5147   estimate D2E/DX2                          !
 !       D11      -128.0416   estimate D2E/DX2                          !
 !       D12       111.861    estimate D2E/DX2                          !
 !       D13         1.2261   estimate D2E/DX2                          !
 !       D14      -120.8582   estimate D2E/DX2                          !
 !       D15       120.9069   estimate D2E/DX2                          !
 !       D16       152.2332   estimate D2E/DX2                          !
 !       D17       123.2208   estimate D2E/DX2                          !
 !       D18       127.6129   estimate D2E/DX2                          !
 !       D19       178.3252   estimate D2E/DX2                          !
 !       D20        -0.9115   estimate D2E/DX2                          !
 !       D21       179.9404   estimate D2E/DX2                          !
 ------------------------------------------------------------------------
 Trust Radius=1.00D-01 FncErr=1.00D-07 GrdErr=1.00D-06 EigMax=2.50D+02 EigMin=1.00D-04
 Number of steps in this run=     67 maximum allowed number of steps=    114.
 GradGradGradGradGradGradGradGradGradGradGradGradGradGradGradGradGradGrad

 ---------------------------------------------------------------------------------------------------
                            Z-MATRIX (ANGSTROMS AND DEGREES)
   CD    Cent   Atom    N1       Length/X        N2       Alpha/Y        N3        Beta/Z          J
 ---------------------------------------------------------------------------------------------------
      1      1  C 
      2      2  C        1   1.327797(     1)
      3      3  C        1   1.516267(     2)      2  126.504(    21)
      4      4  C        1   1.526597(     3)      2  127.353(    22)      3 -178.853(    40)      0
      5      5  H        2   1.085998(     4)      1  118.751(    23)      3  178.670(    41)      0
      6      6  C        2   1.499240(     5)      1  125.780(    24)      5 -179.963(    42)      0
      7      7  O        3   1.425655(     6)      1  106.193(    25)      2  177.612(    43)      0
      8      8  H        3   1.092063(     7)      1  113.539(    26)      7 -118.256(    44)      0
      9      9  H        3   1.099154(     8)      1  110.976(    27)      7  119.807(    45)      0
     10     10  C        4   1.532654(     9)      1  101.146(    28)      2  160.515(    46)      0
     11     11  C        4   1.498997(    10)      1  115.930(    29)     10 -128.042(    47)      0
     12     12  H        4   1.099591(    11)      1  107.048(    30)     10  111.861(    48)      0
     13     13  H        6   1.090034(    12)      2  112.566(    31)      1    1.226(    49)      0
     14     14  H        6   1.094414(    13)      2  110.979(    32)     13 -120.858(    50)      0
     15     15  H        6   1.094198(    14)      2  110.936(    33)     13  120.907(    51)      0
     16     16  H       10   1.089295(    15)      4  114.009(    34)      1  152.233(    52)      0
     17     17  H       10   1.098491(    16)      4  110.665(    35)     16  123.221(    53)      0
     18     18  C       11   1.327622(    17)      4  126.558(    36)      1  127.613(    54)      0
     19     19  H       11   1.086185(    18)      4  115.128(    37)     18  178.325(    55)      0
     20     20  H       18   1.083033(    19)     11  122.696(    38)      4   -0.911(    56)      0
     21     21  H       18   1.082574(    20)     11  120.976(    39)     20  179.940(    57)      0
 ---------------------------------------------------------------------------------------------------
                         Z-Matrix orientation:                         
 ---------------------------------------------------------------------
 Center     Atomic      Atomic             Coordinates (Angstroms)
 Number     Number       Type             X           Y           Z
 ---------------------------------------------------------------------
      1          6           0        0.000000    0.000000    0.000000
      2          6           0        0.000000    0.000000    1.327797
      3          6           0        1.218797    0.000000   -0.901998
      4          6           0       -1.213266    0.024297   -0.926226
      5          1           0       -0.951854    0.022095    1.850174
      6          6           0        1.215974   -0.027450    2.204367
      7          8           0        0.724644   -0.057045   -2.238056
      8          1           0        1.872945   -0.861376   -0.751248
      9          1           0        1.816223    0.911020   -0.756178
     10          6           0       -0.578757    0.513287   -2.232870
     11          6           0       -2.409611    0.772193   -0.419867
     12          1           0       -1.516936   -1.020203   -1.087176
     13          1           0        2.143968   -0.026855    1.632526
     14          1           0        1.218401   -0.915956    2.843345
     15          1           0        1.234883    0.837756    2.873941
     16          1           0       -1.095245    0.174822   -3.130225
     17          1           0       -0.518884    1.610040   -2.248068
     18          6           0       -3.073943    1.727390   -1.059273
     19          1           0       -2.764412    0.465738    0.559929
     20          1           0       -2.790653    2.078454   -2.043885
     21          1           0       -3.939948    2.198746   -0.612255
 ---------------------------------------------------------------------
                    Distance matrix (angstroms):
                    1          2          3          4          5
     1  C    0.000000
     2  C    1.327797   0.000000
     3  C    1.516267   2.541151   0.000000
     4  C    1.526597   2.559926   2.432305   0.000000
     5  H    2.080783   1.085998   3.505234   2.788681   0.000000
     6  C    2.517653   1.499240   3.106487   3.962890   2.197131
     7  O    2.353138   3.639185   1.425655   2.341582   4.419336
     8  H    2.194143   2.927852   1.092063   3.215545   3.940483
     9  H    2.168047   2.910597   1.099154   3.161170   3.904550
    10  C    2.363077   3.643730   2.294752   1.532654   4.129373
    11  C    2.564916   3.075197   3.740866   1.498997   2.800141
    12  H    2.126937   3.028862   2.925635   1.099591   3.167607
    13  H    2.694895   2.165682   2.698235   4.221474   3.103849
    14  H    3.226157   2.149503   3.855719   4.583312   2.564437
    15  H    3.238257   2.148799   3.867791   4.593084   2.548572
    16  H    3.320908   4.593918   3.217196   2.212283   4.984803
    17  H    2.813410   3.955790   2.724641   2.178075   4.416403
    18  C    3.681720   4.258064   4.629928   2.525935   3.984492
    19  H    2.858742   2.906632   4.268501   2.193076   2.268682
    20  H    4.035490   4.845199   4.658279   2.820793   4.772158
    21  H    4.553299   4.911362   5.615255   3.501657   4.441855
                    6          7          8          9         10
     6  C    0.000000
     7  O    4.469608   0.000000
     8  H    3.140494   2.043560   0.000000
     9  H    3.163203   2.079581   1.773311   0.000000
    10  C    4.816900   1.422730   3.177380   2.841609   0.000000
    11  C    4.546526   3.717123   4.595503   4.241468   2.589602
    12  H    4.391880   2.697569   3.410185   3.866411   2.131756
    13  H    1.090034   4.122717   2.540130   2.587071   4.758810
    14  H    1.094414   5.177080   3.654109   4.080662   5.571397
    15  H    1.094198   5.214741   4.054155   3.677104   5.429004
    16  H    5.817260   2.040030   3.942510   3.828149   1.089295
    17  H    5.051265   2.079816   3.750894   2.857811   1.098491
    18  C    5.668703   4.359243   5.591805   4.967097   3.012861
    19  H    4.334845   4.502836   4.998550   4.786714   3.546699
    20  H    6.207700   4.117690   5.662389   4.923860   2.716237
    21  H    6.282742   5.430492   6.570646   5.900208   4.094480
                   11         12         13         14         15
    11  C    0.000000
    12  H    2.110653   0.000000
    13  H    5.058248   4.667519   0.000000
    14  H    5.163416   4.789774   1.764443   0.000000
    15  H    4.912821   5.168653   1.764964   1.754057   0.000000
    16  H    3.070904   2.404154   5.763416   6.498176   6.474487
    17  H    2.760282   3.043346   4.982892   5.943172   5.468738
    18  C    1.327622   3.158215   6.127785   6.375102   5.901492
    19  H    1.086185   2.545030   5.048297   4.794358   4.635452
    20  H    2.118714   3.484153   6.503753   6.994571   6.475283
    21  H    2.100952   4.056868   6.856120   6.946302   6.386293
                   16         17         18         19         20
    16  H    0.000000
    17  H    1.780517   0.000000
    18  C    3.257999   2.820519   0.000000
    19  H    4.060540   3.773151   2.075907   0.000000
    20  H    2.770985   2.328526   1.083033   3.062906   0.000000
    21  H    4.304506   3.837465   1.082574   2.399837   1.839814
                   21
    21  H    0.000000
 Symmetry turned off by external request.
 Stoichiometry    C8H12O
 Framework group  C1[X(C8H12O)]
 Deg. of freedom    57
 Full point group                 C1      NOp   1
 Rotational constants (GHZ):           2.1699050           1.3231418           0.8735133
 Standard basis: def2TZVP (5D, 7F)
 The following finite field(s) will be applied:
 An electric field of              0.0011  0.0016 -0.0016
   351 basis functions,   555 primitive gaussians,   396 cartesian basis functions
    34 alpha electrons       34 beta electrons
       nuclear repulsion energy       444.5741964837 Hartrees.
 NAtoms=   21 NActive=   21 NUniq=   21 SFac= 1.00D+00 NAtFMM=   60 NAOKFM=F Big=F
 Integral buffers will be    131072 words long.
 Raffenetti 2 integral format.
 Two-electron integral symmetry is turned off.
 One-electron integrals computed using PRISM.
   1 Symmetry operations used in ECPInt.
 ECPInt:  NShTT=   10878 NPrTT=   32112 LenC2=   10560 LenP2D=   24705.
 LDataN:  DoStor=T MaxTD1= 6 Len=  172
 NBasis=   351 RedAO= T EigKep=  6.87D-05  NBF=   351
 NBsUse=   351 1.00D-06 EigRej= -1.00D+00 NBFU=   351
 The nuclear repulsion energy is now       444.6795080269 hartrees.
 ExpMin= 9.52D-02 ExpMax= 2.70D+04 ExpMxC= 9.22D+02 IAcc=3 IRadAn=         5 AccDes= 0.00D+00
 Harris functional with IExCor=  402 and IRadAn=       5 diagonalized for initial guess.
 HarFok:  IExCor=  402 AccDes= 0.00D+00 IRadAn=         5 IDoV= 1 UseB2=F ITyADJ=14
 ICtDFT=  3500011 ScaDFX=  1.000000  1.000000  1.000000  1.000000
 FoFCou: FMM=F IPFlag=           0 FMFlag=      100000 FMFlg1=           0
         NFxFlg=           0 DoJE=T BraDBF=F KetDBF=T FulRan=T
         wScrn=  0.000000 ICntrl=       500 IOpCl=  0 I1Cent=   200000004 NGrid=           0
         NMat0=    1 NMatS0=      1 NMatT0=    0 NMatD0=    1 NMtDS0=    0 NMtDT0=    0
 Symmetry not used in FoFCou.
 Requested convergence on RMS density matrix=1.00D-08 within 128 cycles.
 Requested convergence on MAX density matrix=1.00D-06.
 Requested convergence on             energy=1.00D-06.
 No special actions if energy rises.
 Integral accuracy reduced to 1.0D-05 until final iterations.
 Initial convergence to 1.0D-05 achieved.  Increase integral accuracy.
 SCF Done:  E(RB3LYP) =  -387.392666818     A.U. after   14 cycles
            NFock= 14  Conv=0.75D-08     -V/T= 2.0053
   1 Symmetry operations used in ECPInt.
 ECPInt:  NShTT=   10878 NPrTT=   32112 LenC2=   10560 LenP2D=   24705.
 LDataN:  DoStor=T MaxTD1= 7 Len=  274
 Calling FoFJK, ICntrl=      2127 FMM=F ISym2X=0 I1Cent= 0 IOpClX= 0 NMat=1 NMatS=1 NMatT=0.
 -------------------------------------------------------------------
 Center     Atomic                   Forces (Hartrees/Bohr)
 Number     Number              X              Y              Z
 -------------------------------------------------------------------
      1        6          -0.000026844    0.000335171    0.000184849
      2        6           0.000077298    0.000377505    0.000054337
      3        6          -0.000113777   -0.000649982    0.000759001
      4        6          -0.000102681   -0.000237703   -0.000225332
      5        1           0.000206665   -0.000213413   -0.000039922
      6        6          -0.000066862   -0.000230618    0.000018586
      7        8           0.000496508    0.000578743   -0.001008198
      8        1          -0.000064714   -0.000015972   -0.000031444
      9        1           0.000175464    0.000234143   -0.000031233
     10        6          -0.000368158   -0.000635285    0.000522076
     11        6           0.000143465    0.000003715    0.000231719
     12        1          -0.000109923    0.000165155    0.000011614
     13        1           0.000140471   -0.000097214   -0.000135723
     14        1          -0.000123806    0.000265012   -0.000132500
     15        1          -0.000185542   -0.000114155    0.000093455
     16        1          -0.000096620   -0.000121688   -0.000060019
     17        1           0.000010641    0.000356632    0.000064883
     18        6           0.000008155    0.000314779    0.000240876
     19        1          -0.000002064   -0.000038906   -0.000272312
     20        1           0.000043286   -0.000105150   -0.000228191
     21        1          -0.000040962   -0.000170766   -0.000016522
 -------------------------------------------------------------------
 Cartesian Forces:  Max     0.001008198 RMS     0.000278499
 -----------------------------------------------------------------------------------------------
                       Internal Coordinate Forces (Hartree/Bohr or radian)
  Cent   Atom   N1       Length/X         N2         Alpha/Y        N3         Beta/Z          J
 -----------------------------------------------------------------------------------------------
      1  C 
      2  C        1  -0.000142(     1)
      3  C        1   0.000582(     2)      2  -0.002214(    21)
      4  C        1   0.000239(     3)      2  -0.001939(    22)      3  -0.000768(    40)     0
      5  H        2  -0.000205(     4)      1   0.000137(    23)      3  -0.000122(    41)     0
      6  C        2  -0.000279(     5)      1   0.000323(    24)      5  -0.000497(    42)     0
      7  O        3   0.000750(     6)      1   0.002216(    25)      2   0.001598(    43)     0
      8  H        3  -0.000031(     7)      1  -0.000048(    26)      7   0.000119(    44)     0
      9  H        3   0.000285(     8)      1   0.000128(    27)      7  -0.000073(    45)     0
     10  C        4  -0.000765(     9)      1   0.000656(    28)      2   0.000615(    46)     0
     11  C        4  -0.000134(    10)      1   0.000140(    29)     10   0.000029(    47)     0
     12  H        4  -0.000128(    11)      1   0.000262(    30)     10   0.000168(    48)     0
     13  H        6   0.000191(    12)      2  -0.000082(    31)      1   0.000037(    49)     0
     14  H        6  -0.000293(    13)      2  -0.000173(    32)     13  -0.000197(    50)     0
     15  H        6  -0.000036(    14)      2  -0.000179(    33)     13   0.000420(    51)     0
     16  H       10   0.000133(    15)      4  -0.000184(    34)      1  -0.000043(    52)     0
     17  H       10   0.000356(    16)      4  -0.000139(    35)     16   0.000042(    53)     0
     18  C       11   0.000025(    17)      4  -0.000067(    36)      1  -0.000090(    54)     0
     19  H       11  -0.000234(    18)      4  -0.000024(    37)     18  -0.000268(    55)     0
     20  H       18   0.000185(    19)     11  -0.000212(    38)      4  -0.000017(    56)     0
     21  H       18  -0.000048(    20)     11  -0.000166(    39)     20  -0.000261(    57)     0
 -----------------------------------------------------------------------------------------------
 Internal  Forces:  Max     0.002215742 RMS     0.000603930

 GradGradGradGradGradGradGradGradGradGradGradGradGradGradGradGradGradGrad
 Berny optimization.
 Search for a local minimum.
 Step number   1 out of a maximum of   67
 All quantities printed in internal units (Hartrees-Bohrs-Radians)
 Second derivative matrix not updated -- first step.
 ITU=  0
     Eigenvalues ---    0.01916   0.02902   0.03206   0.04207   0.05046
     Eigenvalues ---    0.06600   0.08436   0.08675   0.09692   0.11246
     Eigenvalues ---    0.13415   0.13628   0.15794   0.16838   0.18084
     Eigenvalues ---    0.19948   0.19961   0.20225   0.21608   0.22857
     Eigenvalues ---    0.23415   0.24718   0.24839   0.26226   0.28350
     Eigenvalues ---    0.29775   0.32362   0.32457   0.32483   0.32961
     Eigenvalues ---    0.33727   0.33776   0.33850   0.34307   0.34332
     Eigenvalues ---    0.34575   0.34808   0.34853   0.34891   0.34920
     Eigenvalues ---    0.35257   0.35279   0.35630   0.35685   0.38949
     Eigenvalues ---    0.39194   0.42503   0.42751   0.47796   0.52906
     Eigenvalues ---    0.53406   0.53805   0.60029   0.60071   1.35805
     Eigenvalues ---    1.61048  20.36794
 RFO step:  Lambda=-3.28522430D-05 EMin= 1.91615226D-02
 Linear search not attempted -- first point.
 Variable       Old X    -DE/DX   Delta X   Delta X   Delta X     New X
                                 (Linear)    (Quad)   (Total)
    R2        2.50917  -0.00014   0.00000  -0.00024  -0.00024   2.50894
    R3        2.86533   0.00058   0.00000   0.00011   0.00011   2.86544
    R4        2.88485   0.00024   0.00000  -0.00017  -0.00017   2.88468
    R5        2.05224  -0.00020   0.00000  -0.00058  -0.00058   2.05166
    R6        2.83315  -0.00028   0.00000  -0.00086  -0.00086   2.83229
    R7        2.69410   0.00075   0.00000   0.00181   0.00181   2.69591
    R8        2.06370  -0.00003   0.00000  -0.00009  -0.00009   2.06361
    R9        2.07710   0.00029   0.00000   0.00085   0.00085   2.07795
   R10        2.89630  -0.00076   0.00000  -0.00104  -0.00104   2.89526
   R11        2.83269  -0.00013   0.00000  -0.00042  -0.00042   2.83227
   R12        2.07793  -0.00013   0.00000  -0.00039  -0.00039   2.07754
   R13        2.05987   0.00019   0.00000   0.00055   0.00055   2.06041
   R14        2.06814  -0.00029   0.00000  -0.00085  -0.00085   2.06729
   R15        2.06773  -0.00004   0.00000  -0.00010  -0.00010   2.06763
   R16        2.05847   0.00013   0.00000   0.00038   0.00038   2.05885
   R17        2.07585   0.00036   0.00000   0.00106   0.00106   2.07691
   R18        2.50884   0.00002   0.00000   0.00004   0.00004   2.50888
   R19        2.05259  -0.00023   0.00000  -0.00066  -0.00066   2.05193
   R20        2.04664   0.00018   0.00000   0.00052   0.00052   2.04715
   R21        2.04577  -0.00005   0.00000  -0.00013  -0.00013   2.04564
    A3        2.20791  -0.00221   0.00000  -0.00056  -0.00056   2.20736
    A4        2.22273  -0.00194   0.00000   0.00043   0.00043   2.22316
    A5        2.07260   0.00014   0.00000   0.00006   0.00006   2.07266
    A6        2.19528   0.00032   0.00000   0.00074   0.00074   2.19602
    A7        1.85342   0.00222   0.00000   0.00183   0.00183   1.85526
    A8        1.98162  -0.00005   0.00000   0.00091   0.00091   1.98253
    A9        1.93690   0.00013   0.00000  -0.00129  -0.00129   1.93561
   A10        1.76533   0.00066   0.00000  -0.00075  -0.00075   1.76458
   A11        2.02337   0.00014   0.00000  -0.00013  -0.00013   2.02324
   A12        1.86834   0.00026   0.00000   0.00169   0.00169   1.87003
   A13        1.96466  -0.00008   0.00000   0.00072   0.00072   1.96538
   A14        1.93695  -0.00017   0.00000  -0.00126  -0.00126   1.93569
   A15        1.93619  -0.00018   0.00000  -0.00065  -0.00065   1.93554
   A16        1.98984  -0.00018   0.00000  -0.00031  -0.00031   1.98953
   A17        1.93147  -0.00014   0.00000  -0.00187  -0.00187   1.92960
   A18        2.20886  -0.00007   0.00000  -0.00015  -0.00015   2.20871
   A19        2.00936  -0.00002   0.00000   0.00004   0.00004   2.00940
   A20        2.14145  -0.00021   0.00000  -0.00047  -0.00047   2.14098
   A21        2.11143  -0.00017   0.00000  -0.00029  -0.00029   2.11114
    D4       -3.12157  -0.00077   0.00000  -0.00081  -0.00081  -3.12238
    D5        3.11838  -0.00012   0.00000   0.00232   0.00232   3.12071
    D6       -3.14095  -0.00050   0.00000  -0.00603  -0.00603  -3.14698
    D7        3.09991   0.00160   0.00000   0.01425   0.01425   3.11416
    D8       -2.06396   0.00012   0.00000  -0.00236  -0.00236  -2.06632
    D9        2.09102  -0.00007   0.00000  -0.00197  -0.00197   2.08905
   D10        2.80151   0.00061   0.00000  -0.00868  -0.00868   2.79283
   D11       -2.23475   0.00003   0.00000   0.00187   0.00187  -2.23288
   D12        1.95234   0.00017   0.00000   0.00146   0.00146   1.95380
   D13        0.02140   0.00004   0.00000   0.00277   0.00277   0.02417
   D14       -2.10937  -0.00020   0.00000  -0.00015  -0.00015  -2.10952
   D15        2.11022   0.00042   0.00000   0.00244   0.00244   2.11267
   D16        2.65697  -0.00004   0.00000   0.00254   0.00254   2.65951
   D17        2.15061   0.00004   0.00000  -0.00135  -0.00135   2.14925
   D18        2.22726  -0.00009   0.00000  -0.00156  -0.00156   2.22570
   D19        3.11236  -0.00027   0.00000  -0.00246  -0.00246   3.10990
   D20       -0.01591  -0.00002   0.00000   0.00040   0.00040  -0.01551
   D21        3.14055  -0.00026   0.00000  -0.00381  -0.00381   3.13674
         Item               Value     Threshold  Converged?
 Maximum Force            0.002216     0.000450     NO 
 RMS     Force            0.000604     0.000300     NO 
 Maximum Displacement     0.014247     0.001800     NO 
 RMS     Displacement     0.002673     0.001200     NO 
 Predicted change in Energy=-1.643281D-05
 GradGradGradGradGradGradGradGradGradGradGradGradGradGradGradGradGradGrad

 ---------------------------------------------------------------------------------------------------
                            Z-MATRIX (ANGSTROMS AND DEGREES)
   CD    Cent   Atom    N1       Length/X        N2       Alpha/Y        N3        Beta/Z          J
 ---------------------------------------------------------------------------------------------------
      1      1  C 
      2      2  C        1   1.327672(     1)
      3      3  C        1   1.516326(     2)      2  126.472(    21)
      4      4  C        1   1.526507(     3)      2  127.378(    22)      3 -178.899(    40)      0
      5      5  H        2   1.085692(     4)      1  118.755(    23)      3  178.803(    41)      0
      6      6  C        2   1.498785(     5)      1  125.823(    24)      5 -180.309(    42)      0
      7      7  O        3   1.426612(     6)      1  106.298(    25)      2  178.428(    43)      0
      8      8  H        3   1.092018(     7)      1  113.591(    26)      7 -118.391(    44)      0
      9      9  H        3   1.099605(     8)      1  110.903(    27)      7  119.694(    45)      0
     10     10  C        4   1.532107(     9)      1  101.103(    28)      2  160.017(    46)      0
     11     11  C        4   1.498774(    10)      1  115.923(    29)     10 -127.935(    47)      0
     12     12  H        4   1.099387(    11)      1  107.145(    30)     10  111.944(    48)      0
     13     13  H        6   1.090324(    12)      2  112.608(    31)      1    1.385(    49)      0
     14     14  H        6   1.093964(    13)      2  110.907(    32)     13 -120.867(    50)      0
     15     15  H        6   1.094144(    14)      2  110.898(    33)     13  121.047(    51)      0
     16     16  H       10   1.089494(    15)      4  113.991(    34)      1  152.379(    52)      0
     17     17  H       10   1.099053(    16)      4  110.558(    35)     16  123.143(    53)      0
     18     18  C       11   1.327643(    17)      4  126.550(    36)      1  127.523(    54)      0
     19     19  H       11   1.085835(    18)      4  115.130(    37)     18  178.184(    55)      0
     20     20  H       18   1.083307(    19)     11  122.669(    38)      4   -0.889(    56)      0
     21     21  H       18   1.082505(    20)     11  120.960(    39)     20  179.722(    57)      0
 ---------------------------------------------------------------------------------------------------
                         Z-Matrix orientation:                         
 ---------------------------------------------------------------------
 Center     Atomic      Atomic             Coordinates (Angstroms)
 Number     Number       Type             X           Y           Z
 ---------------------------------------------------------------------
      1          6           0        0.000000    0.000000    0.000000
      2          6           0        0.000000    0.000000    1.327672
      3          6           0        1.219346    0.000000   -0.901353
      4          6           0       -1.212818    0.023303   -0.926689
      5          1           0       -0.951604    0.019879    1.849957
      6          6           0        1.214846   -0.031927    2.204875
      7          8           0        0.727658   -0.037557   -2.240029
      8          1           0        1.867889   -0.867001   -0.759210
      9          1           0        1.822645    0.905968   -0.745198
     10          6           0       -0.579786    0.525007   -2.228577
     11          6           0       -2.412837    0.762460   -0.416859
     12          1           0       -1.512303   -1.021055   -1.094849
     13          1           0        2.143954   -0.032013    1.634292
     14          1           0        1.213640   -0.921813    2.841160
     15          1           0        1.233141    0.830629    2.877788
     16          1           0       -1.094941    0.191661   -3.128851
     17          1           0       -0.526078    1.622735   -2.233619
     18          6           0       -3.080460    1.719017   -1.050825
     19          1           0       -2.768821    0.446405    0.559062
     20          1           0       -2.797170    2.077314   -2.033131
     21          1           0       -3.950834    2.181280   -0.602965
 ---------------------------------------------------------------------
                    Distance matrix (angstroms):
                    1          2          3          4          5
     1  C    0.000000
     2  C    1.327672   0.000000
     3  C    1.516326   2.540740   0.000000
     4  C    1.526507   2.560002   2.432408   0.000000
     5  H    2.080453   1.085692   3.504729   2.788908   0.000000
     6  C    2.517607   1.498785   3.106396   3.962739   2.195941
     7  O    2.355553   3.641344   1.426612   2.343932   4.421675
     8  H    2.194789   2.931855   1.092018   3.211144   3.942569
     9  H    2.167518   2.905099   1.099605   3.166397   3.900825
    10  C    2.361851   3.641249   2.296526   1.532107   4.126481
    11  C    2.564546   3.073518   3.742838   1.498774   2.797335
    12  H    2.127982   3.032857   2.922654   1.099387   3.173296
    13  H    2.696011   2.166006   2.699152   4.222511   3.103495
    14  H    3.224105   2.147861   3.854371   4.580134   2.560771
    15  H    3.239173   2.147892   3.869372   4.594403   2.546932
    16  H    3.320443   4.593063   3.217827   2.211732   4.983832
    17  H    2.810530   3.948774   2.730331   2.176663   4.407472
    18  C    3.680827   4.254586   4.633109   2.525657   3.979150
    19  H    2.859755   2.907990   4.270546   2.192627   2.269496
    20  H    4.033982   4.840908   4.661390   2.820167   4.766290
    21  H    4.553091   4.908608   5.619411   3.501199   4.436650
                    6          7          8          9         10
     6  C    0.000000
     7  O    4.471528   0.000000
     8  H    3.147954   2.044732   0.000000
     9  H    3.154679   2.079364   1.773602   0.000000
    10  C    4.815224   1.423383   3.176135   2.849073   0.000000
    11  C    4.545836   3.718425   4.593143   4.250612   2.588201
    12  H    4.393620   2.701136   3.400307   3.867499   2.131956
    13  H    1.090324   4.125080   2.549955   2.577794   4.759284
    14  H    1.093964   5.180402   3.659742   4.071073   5.568833
    15  H    1.094144   5.215488   4.063571   3.671405   5.427253
    16  H    5.816678   2.040689   3.938823   3.834624   1.089494
    17  H    5.046678   2.080496   3.755495   2.871524   1.099053
    18  C    5.667014   4.359074   5.590947   4.979447   3.011002
    19  H    4.336716   4.504941   4.996194   4.795190   3.545277
    20  H    6.205309   4.115811   5.661681   4.936953   2.713789
    21  H    6.282237   5.430608   6.570690   5.914364   4.092655
                   11         12         13         14         15
    11  C    0.000000
    12  H    2.109871   0.000000
    13  H    5.059916   4.668472   0.000000
    14  H    5.157790   4.788818   1.764585   0.000000
    15  H    4.914519   5.171851   1.766356   1.752934   0.000000
    16  H    3.068805   2.404587   5.764374   6.496953   6.473636
    17  H    2.756910   3.042871   4.982770   5.937569   5.463402
    18  C    1.327643   3.157380   6.129475   6.368739   5.901728
    19  H    1.085835   2.543166   5.051768   4.789571   4.641101
    20  H    2.118700   3.482979   6.504918   6.988567   6.474160
    21  H    2.100743   4.055038   6.859331   6.939955   6.388544
                   16         17         18         19         20
    16  H    0.000000
    17  H    1.781297   0.000000
    18  C    3.254734   2.816583   0.000000
    19  H    4.058013   3.769976   2.075668   0.000000
    20  H    2.766563   2.324800   1.083307   3.062700   0.000000
    21  H    4.300559   3.834052   1.082505   2.399428   1.840414
                   21
    21  H    0.000000
 Symmetry turned off by external request.
 Stoichiometry    C8H12O
 Framework group  C1[X(C8H12O)]
 Deg. of freedom    57
 Full point group                 C1      NOp   1
 Rotational constants (GHZ):           2.1688529           1.3237935           0.8734218
 Standard basis: def2TZVP (5D, 7F)
 The following finite field(s) will be applied:
 An electric field of              0.0011  0.0016 -0.0016
   351 basis functions,   555 primitive gaussians,   396 cartesian basis functions
    34 alpha electrons       34 beta electrons
       nuclear repulsion energy       444.5556139044 Hartrees.
 NAtoms=   21 NActive=   21 NUniq=   21 SFac= 1.00D+00 NAtFMM=   60 NAOKFM=F Big=F
 Integral buffers will be    131072 words long.
 Raffenetti 2 integral format.
 Two-electron integral symmetry is turned off.
 One-electron integrals computed using PRISM.
   1 Symmetry operations used in ECPInt.
 ECPInt:  NShTT=   10878 NPrTT=   32112 LenC2=   10558 LenP2D=   24702.
 LDataN:  DoStor=T MaxTD1= 6 Len=  172
 NBasis=   351 RedAO= T EigKep=  6.91D-05  NBF=   351
 NBsUse=   351 1.00D-06 EigRej= -1.00D+00 NBFU=   351
 The nuclear repulsion energy is now       444.6605616763 hartrees.
 Initial guess from the checkpoint file:  "checkpoint.chk"
 B after Tr=     0.000129    0.000034    0.000378
         Rot=    0.999995   -0.002476    0.000216   -0.001910 Ang=  -0.36 deg.
 Requested convergence on RMS density matrix=1.00D-08 within 128 cycles.
 Requested convergence on MAX density matrix=1.00D-06.
 Requested convergence on             energy=1.00D-06.
 No special actions if energy rises.
 SCF Done:  E(RB3LYP) =  -387.392690931     A.U. after    9 cycles
            NFock=  9  Conv=0.34D-08     -V/T= 2.0053
   1 Symmetry operations used in ECPInt.
 ECPInt:  NShTT=   10878 NPrTT=   32112 LenC2=   10558 LenP2D=   24702.
 LDataN:  DoStor=T MaxTD1= 7 Len=  274
 Calling FoFJK, ICntrl=      2127 FMM=F ISym2X=0 I1Cent= 0 IOpClX= 0 NMat=1 NMatS=1 NMatT=0.
 -------------------------------------------------------------------
 Center     Atomic                   Forces (Hartrees/Bohr)
 Number     Number              X              Y              Z
 -------------------------------------------------------------------
      1        6           0.000029740   -0.000143162   -0.000173925
      2        6           0.000002976    0.000024681   -0.000019112
      3        6           0.000074665    0.000291491    0.000467816
      4        6           0.000202328    0.000036033   -0.000117271
      5        1           0.000000992   -0.000067623    0.000005750
      6        6           0.000071415    0.000039805   -0.000045752
      7        8          -0.000075953    0.000335437   -0.000255453
      8        1          -0.000098281   -0.000124596   -0.000016711
      9        1           0.000098876   -0.000127089   -0.000019836
     10        6          -0.000178798   -0.000142731    0.000146506
     11        6           0.000002874    0.000039834   -0.000007522
     12        1          -0.000002582   -0.000013475    0.000050978
     13        1          -0.000025602   -0.000018849    0.000018935
     14        1          -0.000038392   -0.000020396   -0.000009237
     15        1          -0.000017953   -0.000029539    0.000051550
     16        1          -0.000004070   -0.000056119   -0.000006873
     17        1           0.000027694   -0.000003615   -0.000052228
     18        6          -0.000000189    0.000153111    0.000023088
     19        1          -0.000037576   -0.000057563   -0.000029517
     20        1          -0.000018391   -0.000065685   -0.000007865
     21        1          -0.000013773   -0.000049950   -0.000003324
 -------------------------------------------------------------------
 Cartesian Forces:  Max     0.000467816 RMS     0.000112395
 -----------------------------------------------------------------------------------------------
                       Internal Coordinate Forces (Hartree/Bohr or radian)
  Cent   Atom   N1       Length/X         N2         Alpha/Y        N3         Beta/Z          J
 -----------------------------------------------------------------------------------------------
      1  C 
      2  C        1   0.000002(     1)
      3  C        1  -0.000105(     2)      2  -0.000403(    21)
      4  C        1   0.000018(     3)      2  -0.000188(    22)      3  -0.000418(    40)     0
      5  H        2   0.000001(     4)      1   0.000013(    23)      3  -0.000015(    41)     0
      6  C        2   0.000001(     5)      1   0.000124(    24)      5  -0.000137(    42)     0
      7  O        3   0.000257(     6)      1   0.000052(    25)      2   0.001310(    43)     0
      8  H        3   0.000038(     7)      1  -0.000190(    26)      7   0.000235(    44)     0
      9  H        3  -0.000053(     8)      1   0.000245(    27)      7   0.000190(    45)     0
     10  C        4  -0.000205(     9)      1   0.000356(    28)      2   0.000506(    46)     0
     11  C        4   0.000055(    10)      1   0.000160(    29)     10  -0.000130(    47)     0
     12  H        4   0.000006(    11)      1  -0.000067(    30)     10   0.000082(    48)     0
     13  H        6  -0.000032(    12)      2   0.000007(    31)      1   0.000076(    49)     0
     14  H        6   0.000011(    13)      2  -0.000089(    32)     13  -0.000004(    50)     0
     15  H        6   0.000008(    14)      2   0.000030(    33)     13   0.000116(    51)     0
     16  H       10   0.000025(    15)      4  -0.000055(    34)      1  -0.000076(    52)     0
     17  H       10  -0.000002(    16)      4   0.000123(    35)     16   0.000006(    53)     0
     18  C       11   0.000038(    17)      4   0.000073(    36)      1  -0.000055(    54)     0
     19  H       11   0.000003(    18)      4  -0.000021(    37)     18  -0.000138(    55)     0
     20  H       18  -0.000019(    19)     11  -0.000058(    38)      4   0.000025(    56)     0
     21  H       18  -0.000012(    20)     11  -0.000051(    39)     20  -0.000077(    57)     0
 -----------------------------------------------------------------------------------------------
 Internal  Forces:  Max     0.001310440 RMS     0.000228404

 GradGradGradGradGradGradGradGradGradGradGradGradGradGradGradGradGradGrad
 Berny optimization.
 Search for a local minimum.
 Step number   2 out of a maximum of   67
 All quantities printed in internal units (Hartrees-Bohrs-Radians)
 Update second derivatives using D2CorN and points    1    2
 DE= -2.41D-05 DEPred=-1.64D-05 R= 1.47D+00
 TightC=F SS=  1.41D+00  RLast= 2.02D-02 DXNew= 1.6818D-01 6.0542D-02
 Trust test= 1.47D+00 RLast= 2.02D-02 DXMaxT set to 1.00D-01
 ITU=  1  0
     Eigenvalues ---    0.00536   0.02895   0.03094   0.04198   0.04803
     Eigenvalues ---    0.06485   0.08444   0.08613   0.09716   0.11276
     Eigenvalues ---    0.13378   0.13647   0.15793   0.16821   0.17744
     Eigenvalues ---    0.19931   0.19964   0.20224   0.21609   0.22835
     Eigenvalues ---    0.23419   0.24547   0.24722   0.25559   0.28256
     Eigenvalues ---    0.29765   0.32375   0.32458   0.32489   0.32918
     Eigenvalues ---    0.33728   0.33787   0.33854   0.34311   0.34332
     Eigenvalues ---    0.34576   0.34811   0.34849   0.34892   0.34910
     Eigenvalues ---    0.35259   0.35280   0.35633   0.35685   0.38947
     Eigenvalues ---    0.39182   0.42411   0.42741   0.47786   0.52907
     Eigenvalues ---    0.53390   0.53787   0.60029   0.60071   1.35726
     Eigenvalues ---    1.60875  20.36787
 RFO step:  Lambda=-2.99602284D-05 EMin= 5.35823900D-03
 Quartic linear search produced a step of  0.84743.
 Variable       Old X    -DE/DX   Delta X   Delta X   Delta X     New X
                                 (Linear)    (Quad)   (Total)
    R2        2.50894   0.00000  -0.00020   0.00020  -0.00000   2.50893
    R3        2.86544  -0.00011   0.00009  -0.00124  -0.00115   2.86429
    R4        2.88468   0.00002  -0.00014  -0.00102  -0.00117   2.88351
    R5        2.05166   0.00000  -0.00049   0.00043  -0.00006   2.05160
    R6        2.83229   0.00000  -0.00073   0.00064  -0.00009   2.83220
    R7        2.69591   0.00026   0.00153   0.00149   0.00303   2.69893
    R8        2.06361   0.00004  -0.00007   0.00041   0.00033   2.06395
    R9        2.07795  -0.00005   0.00072  -0.00107  -0.00034   2.07761
   R10        2.89526  -0.00020  -0.00088  -0.00122  -0.00210   2.89316
   R11        2.83227   0.00005  -0.00036   0.00079   0.00043   2.83270
   R12        2.07754   0.00001  -0.00033   0.00031  -0.00002   2.07752
   R13        2.06041  -0.00003   0.00046  -0.00068  -0.00021   2.06020
   R14        2.06729   0.00001  -0.00072   0.00073   0.00001   2.06730
   R15        2.06763   0.00001  -0.00009   0.00015   0.00007   2.06770
   R16        2.05885   0.00002   0.00032  -0.00009   0.00023   2.05907
   R17        2.07691  -0.00000   0.00090  -0.00077   0.00013   2.07704
   R18        2.50888   0.00004   0.00003   0.00015   0.00019   2.50907
   R19        2.05193   0.00000  -0.00056   0.00052  -0.00005   2.05188
   R20        2.04715  -0.00002   0.00044  -0.00055  -0.00011   2.04704
   R21        2.04564  -0.00001  -0.00011   0.00002  -0.00009   2.04555
    A3        2.20736  -0.00040  -0.00047  -0.00081  -0.00129   2.20607
    A4        2.22316  -0.00019   0.00036   0.00093   0.00129   2.22445
    A5        2.07266   0.00001   0.00005  -0.00046  -0.00041   2.07225
    A6        2.19602   0.00012   0.00063   0.00047   0.00110   2.19711
    A7        1.85526   0.00005   0.00155  -0.00033   0.00122   1.85648
    A8        1.98253  -0.00019   0.00077  -0.00167  -0.00090   1.98164
    A9        1.93561   0.00025  -0.00109   0.00194   0.00085   1.93647
   A10        1.76458   0.00036  -0.00064  -0.00143  -0.00207   1.76251
   A11        2.02324   0.00016  -0.00011   0.00074   0.00063   2.02386
   A12        1.87003  -0.00007   0.00143  -0.00082   0.00061   1.87064
   A13        1.96538   0.00001   0.00061   0.00045   0.00106   1.96644
   A14        1.93569  -0.00009  -0.00107  -0.00102  -0.00209   1.93360
   A15        1.93554   0.00003  -0.00055   0.00112   0.00056   1.93611
   A16        1.98953  -0.00005  -0.00027   0.00066   0.00039   1.98992
   A17        1.92960   0.00012  -0.00158   0.00138  -0.00021   1.92939
   A18        2.20871   0.00007  -0.00013   0.00101   0.00088   2.20959
   A19        2.00940  -0.00002   0.00003  -0.00044  -0.00040   2.00900
   A20        2.14098  -0.00006  -0.00039   0.00031  -0.00008   2.14090
   A21        2.11114  -0.00005  -0.00025  -0.00024  -0.00049   2.11065
    D4       -3.12238  -0.00042  -0.00069   0.01284   0.01216  -3.11022
    D5        3.12071  -0.00001   0.00197  -0.00222  -0.00025   3.12045
    D6       -3.14698  -0.00014  -0.00511  -0.00590  -0.01101  -3.15799
    D7        3.11416   0.00131   0.01207   0.03892   0.05099   3.16515
    D8       -2.06632   0.00024  -0.00200   0.00174  -0.00026  -2.06657
    D9        2.08905   0.00019  -0.00167   0.00189   0.00022   2.08927
   D10        2.79283   0.00051  -0.00735  -0.03463  -0.04198   2.75085
   D11       -2.23288  -0.00013   0.00158   0.00096   0.00254  -2.23035
   D12        1.95380   0.00008   0.00123   0.00180   0.00303   1.95683
   D13        0.02417   0.00008   0.00235   0.00817   0.01052   0.03468
   D14       -2.10952  -0.00000  -0.00012   0.00080   0.00067  -2.10885
   D15        2.11267   0.00012   0.00207   0.00080   0.00287   2.11554
   D16        2.65951  -0.00008   0.00216   0.00986   0.01202   2.67153
   D17        2.14925   0.00001  -0.00115   0.00137   0.00022   2.14947
   D18        2.22570  -0.00006  -0.00132  -0.00320  -0.00453   2.22117
   D19        3.10990  -0.00014  -0.00209  -0.00009  -0.00218   3.10772
   D20       -0.01551   0.00003   0.00034   0.00173   0.00207  -0.01345
   D21        3.13674  -0.00008  -0.00323  -0.00287  -0.00611   3.13063
         Item               Value     Threshold  Converged?
 Maximum Force            0.001310     0.000450     NO 
 RMS     Force            0.000228     0.000300     YES
 Maximum Displacement     0.050988     0.001800     NO 
 RMS     Displacement     0.009380     0.001200     NO 
 Predicted change in Energy=-2.379610D-05
 GradGradGradGradGradGradGradGradGradGradGradGradGradGradGradGradGradGrad

 ---------------------------------------------------------------------------------------------------
                            Z-MATRIX (ANGSTROMS AND DEGREES)
   CD    Cent   Atom    N1       Length/X        N2       Alpha/Y        N3        Beta/Z          J
 ---------------------------------------------------------------------------------------------------
      1      1  C 
      2      2  C        1   1.327669(     1)
      3      3  C        1   1.515717(     2)      2  126.398(    21)
      4      4  C        1   1.525889(     3)      2  127.451(    22)      3 -178.203(    40)      0
      5      5  H        2   1.085661(     4)      1  118.731(    23)      3  178.789(    41)      0
      6      6  C        2   1.498736(     5)      1  125.885(    24)      5 -180.940(    42)      0
      7      7  O        3   1.428213(     6)      1  106.368(    25)      2  181.350(    43)      0
      8      8  H        3   1.092193(     7)      1  113.539(    26)      7 -118.406(    44)      0
      9      9  H        3   1.099424(     8)      1  110.951(    27)      7  119.707(    45)      0
     10     10  C        4   1.530995(     9)      1  100.984(    28)      2  157.612(    46)      0
     11     11  C        4   1.499002(    10)      1  115.959(    29)     10 -127.789(    47)      0
     12     12  H        4   1.099379(    11)      1  107.180(    30)     10  112.118(    48)      0
     13     13  H        6   1.090213(    12)      2  112.669(    31)      1    1.987(    49)      0
     14     14  H        6   1.093967(    13)      2  110.787(    32)     13 -120.828(    50)      0
     15     15  H        6   1.094179(    14)      2  110.931(    33)     13  121.211(    51)      0
     16     16  H       10   1.089615(    15)      4  114.014(    34)      1  153.068(    52)      0
     17     17  H       10   1.099122(    16)      4  110.546(    35)     16  123.156(    53)      0
     18     18  C       11   1.327743(    17)      4  126.600(    36)      1  127.264(    54)      0
     19     19  H       11   1.085811(    18)      4  115.107(    37)     18  178.059(    55)      0
     20     20  H       18   1.083248(    19)     11  122.665(    38)      4   -0.770(    56)      0
     21     21  H       18   1.082457(    20)     11  120.932(    39)     20  179.372(    57)      0
 ---------------------------------------------------------------------------------------------------
                         Z-Matrix orientation:                         
 ---------------------------------------------------------------------
 Center     Atomic      Atomic             Coordinates (Angstroms)
 Number     Number       Type             X           Y           Z
 ---------------------------------------------------------------------
      1          6           0        0.000000    0.000000    0.000000
      2          6           0        0.000000    0.000000    1.327669
      3          6           0        1.220015    0.000000   -0.899422
      4          6           0       -1.210761    0.037992   -0.927875
      5          1           0       -0.951788    0.020125    1.849545
      6          6           0        1.213409   -0.045571    2.206175
      7          8           0        0.731056    0.032278   -2.240939
      8          1           0        1.841385   -0.891724   -0.791657
      9          1           0        1.850753    0.879564   -0.706364
     10          6           0       -0.579660    0.590909   -2.208476
     11          6           0       -2.421058    0.746562   -0.398616
     12          1           0       -1.498357   -1.003817   -1.129264
     13          1           0        2.143804   -0.045603    1.637907
     14          1           0        1.205136   -0.941790    2.833461
     15          1           0        1.234198    0.809418    2.888663
     16          1           0       -1.093820    0.291454   -3.121288
     17          1           0       -0.528719    1.688202   -2.170774
     18          6           0       -3.096617    1.717686   -1.001475
     19          1           0       -2.779111    0.391401    0.562968
     20          1           0       -2.814376    2.112070   -1.970096
     21          1           0       -3.975844    2.151549   -0.542741
 ---------------------------------------------------------------------
                    Distance matrix (angstroms):
                    1          2          3          4          5
     1  C    0.000000
     2  C    1.327669   0.000000
     3  C    1.515717   2.539365   0.000000
     4  C    1.525889   2.560248   2.431240   0.000000
     5  H    2.080174   1.085661   3.503421   2.789525   0.000000
     6  C    2.518263   1.498736   3.105939   3.963061   2.195354
     7  O    2.357391   3.642863   1.428213   2.344104   4.423141
     8  H    2.193762   2.945746   1.092193   3.193513   3.950853
     9  H    2.167457   2.887250   1.099424   3.182794   3.889158
    10  C    2.358505   3.631735   2.302526   1.530995   4.114828
    11  C    2.564717   3.065769   3.750410   1.499002   2.782210
    12  H    2.127900   3.047826   2.906892   1.099379   3.196951
    13  H    2.698280   2.166615   2.700649   4.224137   3.103514
    14  H    3.219910   2.146329   3.849884   4.576481   2.558455
    15  H    3.243883   2.148279   3.873622   4.597704   2.545837
    16  H    3.320215   4.590709   3.221097   2.211103   4.980259
    17  H    2.800327   3.920291   2.743070   2.175586   4.373150
    18  C    3.680005   4.238443   4.646954   2.526508   3.950990
    19  H    2.862444   2.908852   4.276072   2.192540   2.265444
    20  H    4.032719   4.822531   4.677979   2.821277   4.736573
    21  H    4.553138   4.892334   5.635010   3.501591   4.405782
                    6          7          8          9         10
     6  C    0.000000
     7  O    4.473875   0.000000
     8  H    3.177630   2.046223   0.000000
     9  H    3.121693   2.080033   1.773365   0.000000
    10  C    4.807218   1.425166   3.172859   2.871683   0.000000
    11  C    4.541119   3.720239   4.583327   4.284947   2.586613
    12  H    4.404209   2.698072   3.358633   3.865553   2.133507
    13  H    1.090213   4.128847   2.590398   2.537207   4.755740
    14  H    1.093967   5.188747   3.680869   4.032928   5.563792
    15  H    1.094179   5.212477   4.099673   3.648189   5.414669
    16  H    5.815390   2.042635   3.929697   3.853341   1.089615
    17  H    5.019827   2.081836   3.765021   2.908656   1.099122
    18  C    5.654593   4.362105   5.589000   5.026531   3.010242
    19  H    4.339503   4.506899   4.983012   4.825468   3.543767
    20  H    6.190291   4.119342   5.664592   4.987937   2.713800
    21  H    6.269946   5.434160   6.569903   5.966067   4.091984
                   11         12         13         14         15
    11  C    0.000000
    12  H    2.109277   0.000000
    13  H    5.060921   4.673408   0.000000
    14  H    5.142581   4.797489   1.764539   0.000000
    15  H    4.916406   5.186367   1.767154   1.752319   0.000000
    16  H    3.062944   2.410298   5.765913   6.501163   6.465869
    17  H    2.758292   3.044981   4.965331   5.913162   5.429368
    18  C    1.327743   3.158694   6.126789   6.347017   5.891866
    19  H    1.085811   2.539806   5.057821   4.775642   4.657278
    20  H    2.118692   3.485348   6.500521   6.968263   6.457196
    21  H    2.100505   4.054416   6.858046   6.914480   6.381252
                   16         17         18         19         20
    16  H    0.000000
    17  H    1.781494   0.000000
    18  C    3.246374   2.821743   0.000000
    19  H    4.052645   3.770849   2.075409   0.000000
    20  H    2.756846   2.333273   1.083248   3.062410   0.000000
    21  H    4.291261   3.840293   1.082457   2.398517   1.840627
                   21
    21  H    0.000000
 Symmetry turned off by external request.
 Stoichiometry    C8H12O
 Framework group  C1[X(C8H12O)]
 Deg. of freedom    57
 Full point group                 C1      NOp   1
 Rotational constants (GHZ):           2.1621515           1.3277085           0.8738992
 Standard basis: def2TZVP (5D, 7F)
 The following finite field(s) will be applied:
 An electric field of              0.0011  0.0016 -0.0016
   351 basis functions,   555 primitive gaussians,   396 cartesian basis functions
    34 alpha electrons       34 beta electrons
       nuclear repulsion energy       444.5567875781 Hartrees.
 NAtoms=   21 NActive=   21 NUniq=   21 SFac= 1.00D+00 NAtFMM=   60 NAOKFM=F Big=F
 Integral buffers will be    131072 words long.
 Raffenetti 2 integral format.
 Two-electron integral symmetry is turned off.
 One-electron integrals computed using PRISM.
   1 Symmetry operations used in ECPInt.
 ECPInt:  NShTT=   10878 NPrTT=   32112 LenC2=   10560 LenP2D=   24704.
 LDataN:  DoStor=T MaxTD1= 6 Len=  172
 NBasis=   351 RedAO= T EigKep=  7.04D-05  NBF=   351
 NBsUse=   351 1.00D-06 EigRej= -1.00D+00 NBFU=   351
 The nuclear repulsion energy is now       444.6618842269 hartrees.
 Initial guess from the checkpoint file:  "checkpoint.chk"
 B after Tr=     0.000821    0.013485    0.006290
         Rot=    0.999942   -0.010091   -0.000175   -0.003768 Ang=  -1.23 deg.
 ExpMin= 9.52D-02 ExpMax= 2.70D+04 ExpMxC= 9.22D+02 IAcc=2 IRadAn=         4 AccDes= 0.00D+00
 Harris functional with IExCor=  402 and IRadAn=       4 diagonalized for initial guess.
 HarFok:  IExCor=  402 AccDes= 0.00D+00 IRadAn=         4 IDoV= 1 UseB2=F ITyADJ=14
 ICtDFT=  3500011 ScaDFX=  1.000000  1.000000  1.000000  1.000000
 FoFCou: FMM=F IPFlag=           0 FMFlag=      100000 FMFlg1=           0
         NFxFlg=           0 DoJE=T BraDBF=F KetDBF=T FulRan=T
         wScrn=  0.000000 ICntrl=       500 IOpCl=  0 I1Cent=   200000004 NGrid=           0
         NMat0=    1 NMatS0=      1 NMatT0=    0 NMatD0=    1 NMtDS0=    0 NMtDT0=    0
 Symmetry not used in FoFCou.
 Requested convergence on RMS density matrix=1.00D-08 within 128 cycles.
 Requested convergence on MAX density matrix=1.00D-06.
 Requested convergence on             energy=1.00D-06.
 No special actions if energy rises.
 Integral accuracy reduced to 1.0D-05 until final iterations.
 Initial convergence to 1.0D-05 achieved.  Increase integral accuracy.
 SCF Done:  E(RB3LYP) =  -387.392713016     A.U. after   11 cycles
            NFock= 11  Conv=0.29D-08     -V/T= 2.0053
   1 Symmetry operations used in ECPInt.
 ECPInt:  NShTT=   10878 NPrTT=   32112 LenC2=   10560 LenP2D=   24704.
 LDataN:  DoStor=T MaxTD1= 7 Len=  274
 Calling FoFJK, ICntrl=      2127 FMM=F ISym2X=0 I1Cent= 0 IOpClX= 0 NMat=1 NMatS=1 NMatT=0.
 -------------------------------------------------------------------
 Center     Atomic                   Forces (Hartrees/Bohr)
 Number     Number              X              Y              Z
 -------------------------------------------------------------------
      1        6           0.000082688    0.000034741   -0.000111658
      2        6          -0.000237190   -0.000671698    0.000129217
      3        6          -0.000014909    0.000936398   -0.000128666
      4        6          -0.000151978    0.000739231    0.000443093
      5        1           0.000025939    0.000213121   -0.000013241
      6        6          -0.000078629    0.000093962    0.000053602
      7        8          -0.000619834    0.000296803    0.000004355
      8        1          -0.000066081   -0.000238188   -0.000034479
      9        1           0.000016077   -0.000300920   -0.000060908
     10        6           0.000702808   -0.000455689    0.000102928
     11        6          -0.000020654   -0.000096169    0.000007452
     12        1           0.000131537   -0.000077020   -0.000230405
     13        1           0.000007186    0.000010297   -0.000018564
     14        1           0.000084210   -0.000067660   -0.000024169
     15        1          -0.000007899   -0.000005076   -0.000049122
     16        1           0.000143085   -0.000133673   -0.000017043
     17        1          -0.000045998   -0.000144810   -0.000048154
     18        6          -0.000040909   -0.000271631   -0.000083067
     19        1          -0.000022949   -0.000027402    0.000029184
     20        1           0.000068694    0.000083356    0.000019384
     21        1           0.000044806    0.000082029    0.000030260
 -------------------------------------------------------------------
 Cartesian Forces:  Max     0.000936398 RMS     0.000248204
 -----------------------------------------------------------------------------------------------
                       Internal Coordinate Forces (Hartree/Bohr or radian)
  Cent   Atom   N1       Length/X         N2         Alpha/Y        N3         Beta/Z          J
 -----------------------------------------------------------------------------------------------
      1  C 
      2  C        1   0.000078(     1)
      3  C        1  -0.000421(     2)      2   0.003351(    21)
      4  C        1  -0.000803(     3)      2   0.003472(    22)      3   0.000173(    40)     0
      5  H        2  -0.000025(     4)      1  -0.000003(    23)      3  -0.000137(    41)     0
      6  C        2  -0.000019(     5)      1  -0.000212(    24)      5   0.000247(    42)     0
      7  O        3   0.000215(     6)      1  -0.001581(    25)      2   0.001300(    43)     0
      8  H        3   0.000153(     7)      1  -0.000212(    26)      7   0.000318(    44)     0
      9  H        3  -0.000242(     8)      1   0.000302(    27)      7   0.000236(    45)     0
     10  C        4   0.000033(     9)      1  -0.002103(    28)      2   0.001553(    46)     0
     11  C        4  -0.000131(    10)      1   0.000192(    29)     10  -0.000355(    47)     0
     12  H        4   0.000081(    11)      1   0.000022(    30)     10  -0.000524(    48)     0
     13  H        6   0.000016(    12)      2  -0.000026(    31)      1   0.000147(    49)     0
     14  H        6   0.000041(    13)      2   0.000092(    32)     13   0.000179(    50)     0
     15  H        6  -0.000035(    14)      2  -0.000050(    33)     13  -0.000051(    51)     0
     16  H       10  -0.000017(    15)      4   0.000071(    34)      1  -0.000467(    52)     0
     17  H       10  -0.000148(    16)      4   0.000047(    35)     16  -0.000105(    53)     0
     18  C       11  -0.000099(    17)      4  -0.000231(    36)      1  -0.000128(    54)     0
     19  H       11   0.000042(    18)      4  -0.000005(    37)     18  -0.000034(    55)     0
     20  H       18   0.000031(    19)     11   0.000001(    38)      4  -0.000014(    56)     0
     21  H       18   0.000009(    20)     11   0.000045(    39)     20   0.000167(    57)     0
 -----------------------------------------------------------------------------------------------
 Internal  Forces:  Max     0.003472102 RMS     0.000801554

 GradGradGradGradGradGradGradGradGradGradGradGradGradGradGradGradGradGrad
 Berny optimization.
 Search for a local minimum.
 Step number   3 out of a maximum of   67
 All quantities printed in internal units (Hartrees-Bohrs-Radians)
 Update second derivatives using D2CorN and points    1    2    3
 DE= -2.21D-05 DEPred=-2.38D-05 R= 9.28D-01
 TightC=F SS=  1.41D+00  RLast= 7.08D-02 DXNew= 1.6818D-01 2.1244D-01
 Trust test= 9.28D-01 RLast= 7.08D-02 DXMaxT set to 1.68D-01
 ITU=  1  1  0
     Eigenvalues ---    0.00736   0.02894   0.03096   0.04201   0.04894
     Eigenvalues ---    0.06469   0.08437   0.08636   0.09716   0.11273
     Eigenvalues ---    0.13358   0.13669   0.15793   0.16812   0.17692
     Eigenvalues ---    0.19927   0.19966   0.20226   0.21612   0.22835
     Eigenvalues ---    0.23417   0.24485   0.24722   0.25515   0.28247
     Eigenvalues ---    0.29766   0.32374   0.32458   0.32490   0.32913
     Eigenvalues ---    0.33728   0.33790   0.33858   0.34312   0.34332
     Eigenvalues ---    0.34577   0.34811   0.34849   0.34893   0.34909
     Eigenvalues ---    0.35260   0.35281   0.35634   0.35685   0.38947
     Eigenvalues ---    0.39184   0.42408   0.42741   0.47785   0.52907
     Eigenvalues ---    0.53392   0.53785   0.60030   0.60071   1.35715
     Eigenvalues ---    1.60857  20.36816
 RFO step:  Lambda=-1.27675208D-05 EMin= 7.35856741D-03
 Quartic linear search produced a step of -0.04052.
 Variable       Old X    -DE/DX   Delta X   Delta X   Delta X     New X
                                 (Linear)    (Quad)   (Total)
    R2        2.50893   0.00008   0.00000   0.00013   0.00013   2.50906
    R3        2.86429  -0.00042   0.00005   0.00017   0.00021   2.86450
    R4        2.88351  -0.00080   0.00005  -0.00060  -0.00056   2.88296
    R5        2.05160  -0.00003   0.00000  -0.00009  -0.00009   2.05151
    R6        2.83220  -0.00002   0.00000  -0.00009  -0.00009   2.83212
    R7        2.69893   0.00021  -0.00012  -0.00010  -0.00022   2.69871
    R8        2.06395   0.00015  -0.00001   0.00049   0.00048   2.06442
    R9        2.07761  -0.00024   0.00001  -0.00075  -0.00074   2.07687
   R10        2.89316   0.00003   0.00009  -0.00029  -0.00020   2.89296
   R11        2.83270  -0.00013  -0.00002  -0.00040  -0.00042   2.83229
   R12        2.07752   0.00008   0.00000   0.00024   0.00024   2.07776
   R13        2.06020   0.00002   0.00001   0.00004   0.00005   2.06025
   R14        2.06730   0.00004  -0.00000   0.00011   0.00011   2.06740
   R15        2.06770  -0.00003  -0.00000  -0.00010  -0.00010   2.06759
   R16        2.05907  -0.00002  -0.00001  -0.00002  -0.00003   2.05904
   R17        2.07704  -0.00015  -0.00001  -0.00042  -0.00043   2.07661
   R18        2.50907  -0.00010  -0.00001  -0.00016  -0.00017   2.50890
   R19        2.05188   0.00004   0.00000   0.00011   0.00011   2.05200
   R20        2.04704   0.00003   0.00000   0.00009   0.00010   2.04714
   R21        2.04555   0.00001   0.00000   0.00002   0.00002   2.04557
    A3        2.20607   0.00335   0.00005  -0.00019  -0.00013   2.20594
    A4        2.22445   0.00347  -0.00005   0.00046   0.00041   2.22486
    A5        2.07225  -0.00000   0.00002   0.00027   0.00029   2.07254
    A6        2.19711  -0.00021  -0.00004  -0.00055  -0.00060   2.19652
    A7        1.85648  -0.00158  -0.00005   0.00057   0.00052   1.85700
    A8        1.98164  -0.00021   0.00004  -0.00178  -0.00174   1.97989
    A9        1.93647   0.00030  -0.00003   0.00196   0.00193   1.93839
   A10        1.76251  -0.00210   0.00008   0.00019   0.00028   1.76279
   A11        2.02386   0.00019  -0.00003   0.00148   0.00145   2.02532
   A12        1.87064   0.00002  -0.00002  -0.00056  -0.00059   1.87005
   A13        1.96644  -0.00003  -0.00004  -0.00030  -0.00035   1.96609
   A14        1.93360   0.00009   0.00008   0.00043   0.00051   1.93411
   A15        1.93611  -0.00005  -0.00002  -0.00014  -0.00017   1.93594
   A16        1.98992   0.00007  -0.00002  -0.00001  -0.00002   1.98989
   A17        1.92939   0.00005   0.00001   0.00015   0.00016   1.92956
   A18        2.20959  -0.00023  -0.00004  -0.00065  -0.00069   2.20891
   A19        2.00900  -0.00000   0.00002   0.00032   0.00034   2.00934
   A20        2.14090   0.00000   0.00000  -0.00010  -0.00009   2.14081
   A21        2.11065   0.00004   0.00002   0.00014   0.00016   2.11082
    D4       -3.11022   0.00017  -0.00049   0.00359   0.00309  -3.10713
    D5        3.12045  -0.00014   0.00001  -0.00338  -0.00337   3.11708
    D6       -3.15799   0.00025   0.00045   0.00130   0.00175  -3.15624
    D7        3.16515   0.00130  -0.00207   0.00777   0.00570   3.17085
    D8       -2.06657   0.00032   0.00001   0.00275   0.00276  -2.06381
    D9        2.08927   0.00024  -0.00001   0.00266   0.00265   2.09193
   D10        2.75085   0.00155   0.00170  -0.00492  -0.00322   2.74763
   D11       -2.23035  -0.00035  -0.00010  -0.00276  -0.00286  -2.23321
   D12        1.95683  -0.00052  -0.00012  -0.00347  -0.00359   1.95324
   D13        0.03468   0.00015  -0.00043   0.00370   0.00327   0.03796
   D14       -2.10885   0.00018  -0.00003   0.00034   0.00032  -2.10853
   D15        2.11554  -0.00005  -0.00012  -0.00038  -0.00049   2.11504
   D16        2.67153  -0.00047  -0.00049  -0.00293  -0.00342   2.66811
   D17        2.14947  -0.00010  -0.00001   0.00029   0.00028   2.14975
   D18        2.22117  -0.00013   0.00018  -0.00313  -0.00294   2.21823
   D19        3.10772  -0.00003   0.00009   0.00044   0.00053   3.10826
   D20       -0.01345  -0.00001  -0.00008  -0.00095  -0.00104  -0.01448
   D21        3.13063   0.00017   0.00025   0.00188   0.00213   3.13277
         Item               Value     Threshold  Converged?
 Maximum Force            0.003472     0.000450     NO 
 RMS     Force            0.000802     0.000300     NO 
 Maximum Displacement     0.005702     0.001800     NO 
 RMS     Displacement     0.001638     0.001200     NO 
 Predicted change in Energy=-6.578549D-06
 GradGradGradGradGradGradGradGradGradGradGradGradGradGradGradGradGradGrad

 ---------------------------------------------------------------------------------------------------
                            Z-MATRIX (ANGSTROMS AND DEGREES)
   CD    Cent   Atom    N1       Length/X        N2       Alpha/Y        N3        Beta/Z          J
 ---------------------------------------------------------------------------------------------------
      1      1  C 
      2      2  C        1   1.327739(     1)
      3      3  C        1   1.515831(     2)      2  126.391(    21)
      4      4  C        1   1.525595(     3)      2  127.475(    22)      3 -178.025(    40)      0
      5      5  H        2   1.085614(     4)      1  118.748(    23)      3  178.595(    41)      0
      6      6  C        2   1.498691(     5)      1  125.851(    24)      5 -180.839(    42)      0
      7      7  O        3   1.428096(     6)      1  106.398(    25)      2  181.676(    43)      0
      8      8  H        3   1.092445(     7)      1  113.440(    26)      7 -118.248(    44)      0
      9      9  H        3   1.099033(     8)      1  111.062(    27)      7  119.859(    45)      0
     10     10  C        4   1.530887(     9)      1  101.000(    28)      2  157.428(    46)      0
     11     11  C        4   1.498782(    10)      1  116.042(    29)     10 -127.953(    47)      0
     12     12  H        4   1.099505(    11)      1  107.146(    30)     10  111.912(    48)      0
     13     13  H        6   1.090239(    12)      2  112.649(    31)      1    2.175(    49)      0
     14     14  H        6   1.094023(    13)      2  110.817(    32)     13 -120.810(    50)      0
     15     15  H        6   1.094124(    14)      2  110.921(    33)     13  121.183(    51)      0
     16     16  H       10   1.089597(    15)      4  114.013(    34)      1  152.872(    52)      0
     17     17  H       10   1.098895(    16)      4  110.555(    35)     16  123.172(    53)      0
     18     18  C       11   1.327655(    17)      4  126.561(    36)      1  127.095(    54)      0
     19     19  H       11   1.085869(    18)      4  115.126(    37)     18  178.090(    55)      0
     20     20  H       18   1.083298(    19)     11  122.659(    38)      4   -0.830(    56)      0
     21     21  H       18   1.082468(    20)     11  120.941(    39)     20  179.494(    57)      0
 ---------------------------------------------------------------------------------------------------
                         Z-Matrix orientation:                         
 ---------------------------------------------------------------------
 Center     Atomic      Atomic             Coordinates (Angstroms)
 Number     Number       Type             X           Y           Z
 ---------------------------------------------------------------------
      1          6           0        0.000000    0.000000    0.000000
      2          6           0        0.000000    0.000000    1.327739
      3          6           0        1.220227    0.000000   -0.899326
      4          6           0       -1.210022    0.041717   -0.928196
      5          1           0       -0.951523    0.023330    1.849868
      6          6           0        1.213821   -0.047558    2.205493
      7          8           0        0.732308    0.040079   -2.240888
      8          1           0        1.836033   -0.896433   -0.796237
      9          1           0        1.856418    0.874149   -0.701846
     10          6           0       -0.578077    0.597107   -2.207181
     11          6           0       -2.421934    0.746468   -0.398155
     12          1           0       -1.495955   -0.999618   -1.135015
     13          1           0        2.143759   -0.045783    1.636430
     14          1           0        1.206772   -0.945505    2.830415
     15          1           0        1.234796    0.805895    2.889806
     16          1           0       -1.090359    0.297696   -3.121042
     17          1           0       -0.528847    1.694209   -2.168277
     18          6           0       -3.095080    1.721431   -0.997313
     19          1           0       -2.782998    0.385394    0.560161
     20          1           0       -2.808583    2.122458   -1.962005
     21          1           0       -3.975362    2.153355   -0.538748
 ---------------------------------------------------------------------
                    Distance matrix (angstroms):
                    1          2          3          4          5
     1  C    0.000000
     2  C    1.327739   0.000000
     3  C    1.515831   2.539444   0.000000
     4  C    1.525595   2.560300   2.430779   0.000000
     5  H    2.080373   1.085614   3.503586   2.790125   0.000000
     6  C    2.517900   1.498691   3.105190   3.962699   2.195497
[...]
 00022505,0.00018649,-0.00019914,0.05097436,-0.08573689,-0.00173233,0.0
 0077971,0.00059480,0.00186632,-0.00207852,0.00059620,-0.00428780,0.019
 56267,0.55332503,-0.01041894,0.01514864,-0.04081429,-0.00244031,0.0005
 1400,-0.00045607,-0.03714181,0.01734044,-0.01080334,0.01888506,0.03789
 845,-0.13417776,0.00012259,-0.00005221,0.00020210,-0.00022650,-0.00086
 330,-0.00028016,0.02899589,-0.01649498,-0.08652474,-0.00167842,-0.0000
 9050,-0.00555835,-0.00061916,0.00014959,-0.00110657,0.09923930,0.02910
 876,0.57792424,-0.02801229,0.01261890,0.00091053,0.00135437,0.00017608
 ,0.00140350,-0.00169357,0.00008873,0.00004486,-0.15680861,0.04711515,0
 .04612853,-0.00017160,-0.00001531,0.00059591,-0.00066218,-0.00059010,0
 .00103757,0.00001797,0.00098777,-0.00038011,-0.00031943,0.00010284,0.0
 0028076,-0.00001234,0.00013525,0.00003448,-0.01181843,0.00166090,0.007
 34484,0.47950713,0.00500999,-0.00270627,0.00371546,-0.00028068,0.00082
 414,-0.00080913,-0.00092523,0.00018885,0.00069239,0.04866666,-0.103144
 56,-0.01349916,-0.00005963,0.00010502,0.00018914,-0.00005859,-0.000020
 46,-0.00008008,-0.00579553,0.00023013,0.00291430,-0.00038188,-0.000076
 25,0.00010832,-0.00031400,-0.00003821,0.00002589,-0.00749508,0.0091922
 6,-0.00168336,-0.23949354,0.53287224,-0.01455549,0.01114560,0.01452109
 ,-0.00106546,0.00008441,-0.00050462,-0.00383449,-0.00050235,-0.0057296
 4,0.04296143,-0.01169511,-0.10890214,-0.00110651,0.00058037,-0.0010526
 7,0.00043594,-0.00062019,-0.00053301,0.00679486,0.00104830,-0.00317199
 ,-0.00020056,0.00002555,0.00040687,-0.00054987,0.00007294,0.00085282,0
 .02026793,-0.01526561,-0.00702544,-0.04961945,-0.24555899,0.55622363,-
 0.00899213,-0.02230781,-0.01043702,-0.00053767,0.00005672,0.00123043,-
 0.00025463,0.00084174,-0.00087761,-0.05811760,-0.05729908,-0.00797420,
 0.00000845,-0.00112061,-0.00010134,0.00011880,0.00216482,-0.00064683,0
 .00107981,0.00084383,0.00069121,-0.00033984,-0.00019412,0.00013277,0.0
 0019826,0.00008695,-0.00012865,-0.00309464,-0.01222077,-0.00058891,0.0
 0412032,0.02882180,0.00511125,0.06911850,-0.00262163,0.00237403,-0.002
 68492,0.00006567,0.00100963,0.00129024,-0.00057617,-0.00052341,-0.0003
 4881,-0.05754361,-0.25925258,-0.04401650,0.00003093,-0.00001899,-0.000
 01253,-0.00016482,-0.00026051,-0.00025931,0.00020947,0.00207751,-0.000
 61302,-0.00008567,-0.00001724,-0.00006933,-0.00008896,-0.00006275,0.00
 011783,-0.00343779,-0.01612366,-0.00018749,0.00186314,-0.01832356,-0.0
 0336359,0.06098673,0.28657476,-0.01099686,-0.01970198,-0.01037166,-0.0
 0141282,0.00024374,0.00126517,0.00014386,0.00034056,-0.00041256,-0.008
 06418,-0.05083047,-0.05138063,0.00002424,-0.00130150,-0.00026924,0.000
 12473,0.00229166,-0.00054107,-0.00180122,-0.00148703,0.00116833,-0.000
 16230,-0.00010320,0.00016703,0.00000221,0.00003757,-0.00005889,0.00873
 387,0.03060501,0.00127720,-0.00166232,-0.01216313,-0.00109764,0.011769
 20,0.04929967,0.06283154,0.00127339,0.00024843,0.00165985,-0.02354513,
 -0.00049999,0.01506734,-0.00027494,-0.00020297,-0.00049799,0.00001012,
 -0.00002076,-0.00019005,-0.00268730,-0.00007594,-0.00374303,-0.2349065
 3,-0.00562749,0.11664786,0.00102501,-0.00003539,0.00028993,0.00033500,
 -0.00042675,-0.00031865,0.00051967,0.00050239,-0.00021383,-0.00051877,
 0.00013488,0.00033069,-0.00010240,-0.00004371,0.00009189,-0.00009978,0
 .00002693,-0.00004651,0.25771929,-0.00015422,0.00007381,-0.00009689,0.
 00133578,-0.00093514,-0.00051371,0.00010639,0.00044525,0.00012776,0.00
 002276,-0.00014665,0.00000470,0.00026734,0.00134734,0.00019916,-0.0058
 2086,-0.04718457,0.00296328,-0.00000471,-0.00024827,-0.00013247,0.0000
 3105,-0.00015182,-0.00054118,-0.00014641,-0.00016131,0.00053273,0.0000
 1554,0.00002227,0.00006175,0.00003246,-0.00001780,0.00001161,-0.000056
 16,0.00000677,-0.00004692,0.00596696,0.04505497,0.00041757,-0.00012744
 ,0.00139758,-0.01828172,-0.00055769,0.01295357,0.00015517,-0.00022390,
 -0.00125897,0.00004181,0.00000718,0.00015226,-0.00363250,0.00037442,-0
 .00182429,0.11963047,0.00301599,-0.12358149,-0.00009704,0.00002581,0.0
 0042966,0.00005255,0.00006694,-0.00062059,0.00010333,0.00007575,-0.000
 62773,-0.00017316,0.00006574,-0.00001231,-0.00017533,0.00003242,0.0000
 6233,0.00001080,0.00001390,0.00001360,-0.12863104,-0.00390209,0.133758
 36,-0.00287770,0.00039089,0.00021249,0.00017484,0.02307489,-0.01817854
 ,-0.00015476,0.00090294,0.00019304,-0.00018972,-0.00230793,-0.00035915
 ,0.00051126,-0.00063231,0.00082932,-0.04663210,0.00015803,0.00169434,0
 .00032148,0.00006173,0.00013745,0.00011530,-0.00022343,0.00012377,0.00
 035420,0.00022487,-0.00053937,-0.00005564,-0.00003951,0.00029786,0.000
 38804,-0.00003136,-0.00018419,-0.00057172,0.00007863,-0.00056118,0.000
 22902,-0.02374497,0.01422256,0.04892758,0.00028153,0.00001388,-0.00147
 342,0.00137700,0.00292598,0.00029961,-0.00024028,0.00003152,-0.0000178
 3,0.00003002,-0.00014821,0.00005080,0.00051957,0.00023346,0.00029304,-
 0.00184713,-0.22305885,0.11832135,0.00001402,-0.00001830,0.00005227,0.
 00006359,-0.00009880,0.00004433,0.00002676,-0.00004793,0.00002905,0.00
 005544,-0.00000740,0.00000946,-0.00006719,0.00000081,0.00007802,-0.000
 02737,-0.00008474,-0.00000516,-0.00070649,0.00037425,-0.00086625,0.001
 22093,0.24283083,-0.00272308,0.00053853,0.00112923,-0.00258312,0.01523
 361,-0.01592521,-0.00011104,0.00073112,0.00018844,-0.00019650,-0.00186
 265,-0.00039353,-0.00008936,-0.00049067,0.00055812,0.00368262,0.119285
 47,-0.11986078,-0.00001414,-0.00003883,-0.00017236,-0.00007314,0.00010
 315,-0.00021211,0.00014840,-0.00006615,0.00029623,0.00009643,-0.000067
 76,0.00009467,0.00024945,-0.00009266,-0.00000184,-0.00035313,0.0001063
 5,-0.00040837,0.00001822,0.01434382,-0.00982861,0.00205822,-0.13037750
 ,0.13273318,-0.00309648,0.00021377,-0.00031605,0.00041059,-0.02149478,
 -0.01983183,-0.00044987,-0.00093992,0.00029457,0.00032779,0.00170668,-
 0.00075441,0.00073002,0.00042749,0.00084845,-0.04787583,0.00005869,0.0
 0210288,0.00038258,-0.00002575,0.00003495,0.00021055,-0.00017672,-0.00
 055012,0.00019518,0.00023365,0.00021325,-0.00071308,0.00000273,0.00002
 319,0.00025327,-0.00008843,-0.00031794,0.00006802,-0.00000428,0.000139
 99,0.00063228,0.02215017,0.01618259,-0.00038844,-0.00072866,-0.0000516
 7,0.04940468,-0.00011220,0.00005790,0.00102711,-0.00057284,0.00410492,
 0.00199149,0.00011473,0.00002832,0.00013020,0.00009454,-0.00036691,0.0
 0011175,-0.00055980,0.00030152,-0.00029715,0.00102854,-0.19709877,-0.1
 2633051,-0.00003704,0.00002716,-0.00008808,-0.00002310,-0.00006311,-0.
 00003020,-0.00001113,-0.00006427,-0.00000748,0.00002802,-0.00002916,0.
 00006129,0.00005223,-0.00002319,-0.00006076,-0.00009619,-0.00000466,-0
 .00008016,0.00079345,0.00154602,0.00203381,0.00076205,-0.02292036,-0.0
 1748280,-0.00143407,0.21449296,-0.00311377,-0.00058498,0.00123403,-0.0
 0242860,-0.01344133,-0.01718219,-0.00006470,-0.00066446,-0.00000001,0.
 00020812,0.00166989,-0.00071707,-0.00006977,0.00061955,0.00069976,0.00
 389573,-0.12704596,-0.14577450,0.00004705,0.00002626,-0.00001756,0.000
 12854,0.00005075,0.00021162,-0.00012817,-0.00012969,-0.00022452,-0.000
 49603,-0.00012698,-0.00013810,0.00008451,-0.00010638,-0.00021592,0.000
 22031,0.00000093,0.00025580,-0.00020656,-0.01304040,-0.01089461,-0.000
 00287,0.01355275,0.01179491,0.00200293,0.13900078,0.16107884,-0.002697
 28,-0.00093292,0.00300004,0.00118482,-0.00007751,0.00010884,-0.0045484
 4,0.00023945,0.00289470,0.00989485,0.00449367,0.01223820,-0.00000172,-
 0.00015057,-0.00008270,-0.00015676,0.00026506,0.00022040,-0.02498716,-
 0.00068807,-0.03031367,-0.00038141,-0.00002429,-0.00097946,-0.00038145
 ,-0.00015635,-0.00106340,-0.09739496,-0.03454592,-0.09418594,0.0005242
 8,-0.00044982,-0.00005856,0.00043818,0.00050151,-0.00082755,0.00012099
 ,-0.00000128,0.00000370,0.00001827,-0.00000103,-0.00001601,0.00011807,
 -0.00000346,0.00005377,0.11717344,0.00041408,-0.00022729,0.00187904,0.
 00057165,0.00014991,0.00042383,0.00294265,-0.00030760,0.00137449,0.005
 10727,0.00288592,0.01074313,-0.00004113,0.00000423,0.00002381,0.000006
 34,0.00001429,0.00012694,0.00927513,0.00436646,0.01412643,0.00032648,0
 .00003272,0.00042628,0.00046843,-0.00014846,0.00059568,-0.03901769,-0.
 07550699,-0.07058312,0.00024729,-0.00010177,0.00017122,0.00071743,0.00
 097782,-0.00005613,-0.00005904,-0.00000863,-0.00000958,-0.00000459,-0.
 00000012,0.00003942,0.00000128,-0.00000110,0.00006693,0.03359948,0.076
 32018,0.00184659,0.00187688,-0.00343978,-0.00109230,0.00023357,-0.0001
 3005,0.00116132,-0.00040768,0.00059546,-0.01163855,-0.00749441,-0.0170
 5851,0.00005417,0.00015673,-0.00001824,0.00015153,-0.00043447,-0.00032
 346,-0.00024269,0.00279299,0.00421368,-0.00005077,-0.00006958,0.000079
 93,-0.00019669,-0.00001540,-0.00000946,-0.10143044,-0.06412435,-0.2379
 5804,-0.00056522,0.00091408,-0.00047671,-0.00014758,0.00004680,0.00144
 923,-0.00001709,0.00000882,0.00002627,-0.00003586,0.00002891,-0.000013
 06,-0.00015779,-0.00000245,-0.00013943,0.11187183,0.06774368,0.2532876
 8,-0.00054856,0.00008442,-0.00074058,0.00050415,0.00017760,0.00001998,
 0.00235802,0.00179841,0.00415835,-0.00044566,-0.01436265,-0.00097840,0
 .00001697,0.00003708,-0.00006661,-0.00004292,-0.00008514,0.00007608,-0
 .01341046,0.04143342,0.00105184,-0.00047512,-0.00024339,-0.00093264,-0
 .00028763,-0.00090313,-0.00011001,-0.04879449,-0.02472012,-0.00501603,
 0.00082229,-0.00028925,-0.00053459,-0.00060516,-0.00086153,0.00323403,
 0.00003347,0.00001277,0.00001126,0.00002328,-0.00000320,0.00001978,0.0
 0002291,-0.00000142,-0.00000602,0.00126646,-0.01424508,-0.00031769,0.0
 6126176,-0.00023488,0.00050233,-0.00040081,0.00008331,0.00022228,0.000
 27911,-0.00014687,-0.00010561,-0.00224172,-0.00381252,-0.01346653,0.00
 017751,-0.00003353,-0.00003696,0.00011910,0.00000924,-0.00005072,0.000
 05639,0.01679837,-0.01114138,-0.00055430,0.00034714,-0.00005850,0.0005
 9281,0.00049742,-0.00017694,0.00106215,-0.02468295,-0.28127772,-0.0125
 0308,0.00140632,-0.00015558,-0.00053463,-0.00019067,-0.00003596,0.0025
 6589,-0.00004249,-0.00001747,-0.00003224,0.00002450,-0.00000883,0.0000
 2675,0.00002109,0.00001298,0.00006368,-0.00233289,-0.00864084,-0.00068
 060,0.01188137,0.31332868,0.00125489,0.00007858,0.00160231,-0.00022578
 ,-0.00024153,-0.00024339,0.00032281,0.00068899,-0.00002898,0.00393090,
 0.02712161,0.00078407,-0.00000051,0.00000182,0.00003777,0.00003564,0.0
 0002302,-0.00000033,0.00147951,-0.00085451,0.00408295,-0.00009582,-0.0
 0018960,0.00011080,0.00012686,-0.00016868,0.00043833,-0.00509119,-0.01
 421343,-0.05729386,-0.00107996,0.00045894,0.00109055,0.00162621,0.0024
 1722,-0.00392449,-0.00002412,0.00000653,-0.00000624,-0.00000811,0.0000
 0173,-0.00000241,-0.00000044,0.00000886,-0.00001995,-0.00275152,-0.026
 89063,-0.00014845,0.00003822,0.01257129,0.05304476,0.00005573,0.001568
 06,0.00339183,-0.00035639,-0.00014105,0.00014823,-0.00041317,-0.000017
 85,-0.00075735,-0.01384632,0.02424880,-0.01071637,0.00005646,0.0000771
 5,-0.00037332,0.00022986,-0.00009930,-0.00040736,0.00013387,-0.0000591
 4,0.00012458,-0.00009997,0.00002694,0.00004292,-0.00018955,-0.00001612
 ,0.00013724,-0.00039038,0.00015961,-0.00203656,-0.20476931,0.18778804,
 -0.08364962,-0.00222848,0.00084901,0.00102210,0.00005391,0.00000543,0.
 00006661,-0.00012443,0.00003960,-0.00004856,-0.00013581,-0.00002858,-0
 .00009576,0.00006982,-0.00004605,0.00032341,-0.00063598,0.00050654,0.0
 0042259,0.52280068,-0.00185001,0.00053978,-0.00335244,0.00006673,0.000
 40109,0.00037132,0.00025934,-0.00032070,0.00049857,0.01530705,-0.01034
 746,0.00551207,-0.00014093,-0.00019393,0.00001330,0.00000594,-0.000012
 47,0.00019823,-0.00014472,0.00000066,0.00047269,0.00016136,0.00005069,
 -0.00001924,0.00017495,0.00002221,-0.00006218,-0.00048685,-0.00028648,
 0.00043797,0.18436097,-0.32359481,0.16626039,0.00043412,0.00109299,-0.
 00013159,-0.00000303,-0.00000629,-0.00001213,0.00006269,-0.00000473,0.
 00004257,0.00009190,-0.00000886,0.00008960,0.00031368,0.00061441,-0.00
 003684,-0.00007616,0.00019212,-0.00063374,-0.28096917,0.50906690,0.001
 55374,-0.00163009,-0.00210741,0.00013380,0.00025306,-0.00028033,0.0004
 0363,0.00029486,0.00064829,0.00585264,-0.00661651,0.01254365,-0.000053
 15,-0.00009685,0.00051836,-0.00024169,0.00001471,0.00040554,-0.0002995
 3,0.00073395,-0.00046357,-0.00002426,-0.00002568,-0.00006338,0.0001409
 5,-0.00001361,-0.00013420,0.00040631,-0.00240081,0.00088835,-0.0799788
 9,0.16291461,-0.18652596,0.00142422,-0.00193887,-0.00069704,-0.0000989
 6,0.00000061,-0.00007551,0.00008111,-0.00000984,0.00001368,0.00008125,
 0.00000734,0.00003599,-0.00018541,-0.00035374,-0.00002592,0.00030066,0
 .00065139,0.00050663,-0.09595177,-0.23667625,0.55722496,0.00179614,-0.
 00053883,0.00023633,-0.00086434,0.00002746,0.00056890,0.00053083,-0.00
 005113,0.00098895,-0.00768720,-0.00971878,0.02290233,-0.00056578,0.000
 25001,-0.00126091,0.00028138,0.00001724,-0.00058043,-0.00236661,-0.000
 13432,0.00080942,0.00000549,0.00002093,-0.00014600,0.00000902,-0.00004
 096,-0.00014891,-0.00129801,0.00438057,-0.00073364,-0.08167660,-0.0274
 2480,0.08621034,0.00057546,0.00046242,-0.00005400,0.00020149,-0.000014
 72,0.00010387,-0.00005425,-0.00000856,-0.00000933,-0.00006732,0.000011
 56,-0.00000852,-0.00019599,-0.00013765,0.00042791,0.00009134,-0.000230
 06,-0.00030489,0.00874248,0.00903973,-0.01502595,0.08159180,-0.0000238
 0,0.00019507,0.00030691,0.00006686,-0.00020696,0.00030542,-0.00011023,
 0.00006524,-0.00059138,0.00577986,0.00751574,-0.01337925,0.00030044,0.
 00034759,0.00007048,0.00003361,-0.00003029,-0.00005785,0.00151100,0.00
 015141,-0.00046501,0.00003921,-0.00001997,0.00004403,0.00000554,0.0000
 1904,0.00005625,0.00177769,-0.00124752,0.00125244,-0.02552308,-0.08323
 673,0.08580693,-0.00108300,0.00065902,0.00041604,0.00002389,0.00000584
 ,0.00000207,0.00000730,0.,0.00001705,-0.00003170,-0.00000116,-0.000018
 41,-0.00024984,-0.00010531,-0.00000022,0.00013440,0.00020435,-0.000167
 64,-0.00667067,-0.00540112,0.02470439,0.02086923,0.08149375,-0.0003383
 4,-0.00025736,-0.00088493,-0.00046225,0.00017132,-0.00001236,-0.000209
 89,-0.00000264,-0.00050999,0.00504895,0.00477000,-0.00857152,-0.001052
 20,0.00006209,0.00018752,-0.00016338,0.00008297,0.00026554,0.00137937,
 0.00005547,-0.00035936,0.00005602,-0.00002191,0.00005667,0.00003392,0.
 00003504,0.00006329,0.00003691,-0.00168715,0.00213353,0.08321361,0.088
 12882,-0.25711742,-0.00010743,-0.00021440,0.00031324,-0.00008761,0.000
 00787,-0.00006161,0.00003244,-0.00000693,0.00001403,0.00005456,0.00000
 609,0.00002173,-0.00008390,0.00002583,-0.00007045,-0.00002496,0.000086
 32,-0.00008516,0.00655669,0.00715636,-0.01059024,-0.09266347,-0.100494
 46,0.27286333,-0.00031558,0.00025982,0.00035244,-0.00003015,-0.0000371
 4,-0.00005152,-0.00027449,0.00017290,-0.00035483,-0.00193027,-0.003363
 46,-0.00232955,-0.00000624,0.00005519,0.00001296,-0.00000871,-0.000038
 91,0.00002002,0.00047776,-0.00035436,-0.00012275,-0.00006376,-0.000031
 22,0.00005701,-0.00000869,0.00002749,0.00003817,-0.00098366,0.00124802
 ,0.00021022,0.00976887,0.00691890,-0.01455308,0.00067002,-0.00058273,-
 0.00000847,-0.00000888,0.00000281,-0.00000653,0.00000985,-0.00000395,0
 .00001032,-0.00000516,0.00000362,-0.00000603,-0.00006367,-0.00012810,0
 .00003568,-0.00126303,0.00010904,0.00036825,-0.07223850,-0.02154198,0.
 07547749,0.00272977,0.00662468,0.00154671,0.06670125,-0.00027338,0.000
 53614,0.00044930,-0.00012628,-0.00004870,0.00014643,-0.00016379,0.0000
 6434,0.00025100,-0.00485291,-0.00234026,-0.00242645,0.00005334,0.00002
 440,-0.00022971,0.00008072,-0.00004882,-0.00014778,-0.00020567,0.00026
 168,-0.00051261,-0.00008851,-0.00001107,-0.00004425,-0.00002363,-0.000
 01555,-0.00006003,0.00068826,-0.00053482,0.00008352,-0.00658050,-0.004
 91830,0.02318996,0.00075288,-0.00045693,-0.00013266,0.00005288,0.00000
 541,0.00003393,-0.00001478,0.00000157,0.00000327,-0.00003202,-0.000001
 48,-0.00002108,0.00020743,-0.00027016,-0.00044485,0.00007380,0.0004166
 1,0.00002698,-0.01962993,-0.08748443,0.09772960,0.00677161,0.00265356,
 0.00529788,0.02010659,0.08586121,-0.00027282,0.00027466,0.00032354,0.0
 0001404,-0.00007045,-0.00004790,-0.00017120,0.00004962,-0.00029380,-0.
 00142410,-0.00325529,-0.00147341,-0.00000235,0.00002859,0.00004197,0.0
 0000165,-0.00001948,0.00002077,0.00014807,-0.00063740,0.00036410,-0.00
 001794,-0.00002204,0.00008678,-0.00004266,0.00000634,0.00004159,0.0004
 1779,0.00085999,-0.00005784,0.00591353,0.00636982,-0.00975919,0.000426
 56,-0.00023943,-0.00004017,-0.00002461,0.00000722,0.00000384,-0.000000
 31,-0.00000232,0.00000117,-0.00000489,0.00000101,-0.00001736,0.0001813
 3,-0.00000398,0.00000073,-0.00001889,-0.00086144,0.00006618,0.07243417
 ,0.10029228,-0.26564625,0.00130733,0.00524983,0.00315426,-0.08060559,-
 0.11340127,0.28085943,0.00079909,-0.00028727,-0.00018170,0.00003318,-0
 .00008452,-0.00014767,0.00029449,-0.00007131,0.00027254,0.00481069,0.0
 0534675,0.00160586,-0.00002517,0.00006181,0.00003819,-0.00000298,0.000
 04849,-0.00001158,-0.00037205,0.00003423,0.00000931,0.00003318,0.00002
 246,-0.00005632,-0.00000320,-0.00002509,-0.00002599,0.00036560,0.00001
 656,-0.00036341,-0.01070977,0.00592617,0.00835617,-0.00155417,0.000892
 73,0.00040318,-0.00000991,-0.00000614,-0.00000496,-0.00002437,0.000005
 39,-0.00001437,-0.00002396,-0.00000891,-0.00001414,-0.00000034,0.00000
 182,0.00002021,0.00010838,0.00002253,-0.00002353,-0.23671451,0.0949344
 0,0.10600382,-0.00177909,-0.00348138,-0.00276573,-0.00315673,0.0032038
 9,0.00174090,0.24793165,0.00128853,-0.00110345,-0.00128640,0.00014060,
 0.00003152,-0.00016495,0.00042954,-0.00009303,0.00062011,0.00509406,0.
 00428921,0.00687974,-0.00002869,-0.00005105,0.00008024,-0.00006183,0.0
 0009569,0.00010074,-0.00017192,0.00025005,-0.00020145,0.00010589,0.000
 00735,-0.00010502,0.00007523,-0.00000975,-0.00007600,-0.00026373,-0.00
 034383,0.00039174,0.02142167,-0.00705597,-0.01087407,-0.00111124,0.000
 39246,0.00023979,-0.00000575,-0.00000399,-0.00001665,0.00002943,-0.000
 01402,0.00000791,0.00004887,0.00001125,0.00003856,-0.00000634,-0.00004
 767,-0.00009162,0.00015780,0.00029370,-0.00004579,0.09240868,-0.084319
 58,-0.03754228,-0.00355093,-0.00306155,-0.00320119,-0.00944722,0.00630
 559,0.00537375,-0.10655263,0.08442707,0.00067030,-0.00040795,-0.000117
 08,0.00002126,-0.00005303,-0.00009769,0.00013736,-0.00009477,-0.000003
 29,0.00246073,0.00568692,0.00208392,-0.00001513,-0.00000091,0.00003476
 ,-0.00000104,0.00007362,0.00000369,0.00000875,-0.00039631,0.00026749,0
 .00008709,0.00000819,0.00000796,0.00000823,0.00000077,0.00002868,0.000
 06889,0.00071391,-0.00031324,-0.01378078,0.00752872,0.00895691,-0.0012
 8026,0.00065527,0.00046060,-0.00000570,-0.00000221,-0.00000550,-0.0000
 1302,-0.00000207,-0.00000538,0.00000651,-0.00000014,0.00000855,-0.0000
 2470,0.00013044,0.00015860,-0.00016380,-0.00044356,-0.00001109,0.10936
 629,-0.04042094,-0.10617565,-0.00261931,-0.00305765,-0.00081012,0.0199
 0909,-0.00979114,-0.00762846,-0.11484077,0.03987285,0.10315634\\-0.000
 14511,-0.00018479,0.00000295,0.00014998,0.00031144,0.00000194,-0.00000
 097,-0.00011198,-0.00000621,-0.00000519,-0.00000635,0.00001426,-0.0000
 0067,-0.00000855,-0.00000039,0.00000041,-0.00002690,-0.00000282,-0.000
 04734,0.00001888,0.00000345,-0.00000085,0.00000037,0.00000204,0.000000
 64,-0.00000006,0.00000456,0.00003380,-0.00001748,-0.00001843,0.0000047
 3,-0.00000262,-0.00000379,0.00000488,-0.00000080,0.00000403,-0.0000005
 1,0.00000805,0.00000061,-0.00000586,0.00000879,0.00000281,0.00000509,0
 .00000878,-0.00000013,-0.00000065,0.00000359,-0.00000271,0.00000822,0.
 00000041,-0.00000148,-0.00000148,-0.00000121,-0.00000110,-0.00000183,-
 0.00000409,-0.00000206,0.00000073,0.00000196,0.00000120,0.00000198,0.0
 0000257,0.00000126\\\@


 HE WHO LAUGHS LAST PROBABLY DIDN'T GET THE JOKE.
 Job cpu time:       0 days  2 hours 24 minutes 19.2 seconds.
 Elapsed time:       0 days  0 hours 12 minutes  2.3 seconds.
 File lengths (MBytes):  RWF=    204 Int=      0 D2E=      0 Chk=     32 Scr=      1
 Normal termination of Gaussian 16 at Fri Jun 10 12:16:35 2022.
