 Entering Gaussian System, Link 0=g16
 Input=int.gjf
 Output=int.out
 Initial command:
 /software/gaussian/g16-a03/l1.exe "/local_scratch/11171615/Gau-3833.inp" -scrdir="/local_scratch/11171615/"
 Entering Link 1 = /software/gaussian/g16-a03/l1.exe PID=      3834.
  
 Copyright (c) 1988,1990,1992,1993,1995,1998,2003,2009,2016,
            Gaussian, Inc.  All Rights Reserved.
  
 This is part of the Gaussian(R) 16 program.  It is based on
 the Gaussian(R) 09 system (copyright 2009, Gaussian, Inc.),
 the Gaussian(R) 03 system (copyright 2003, Gaussian, Inc.),
 the Gaussian(R) 98 system (copyright 1998, Gaussian, Inc.),
 the Gaussian(R) 94 system (copyright 1995, Gaussian, Inc.),
 the Gaussian 92(TM) system (copyright 1992, Gaussian, Inc.),
 the Gaussian 90(TM) system (copyright 1990, Gaussian, Inc.),
 the Gaussian 88(TM) system (copyright 1988, Gaussian, Inc.),
 the Gaussian 86(TM) system (copyright 1986, Carnegie Mellon
 University), and the Gaussian 82(TM) system (copyright 1983,
 Carnegie Mellon University). Gaussian is a federally registered
 trademark of Gaussian, Inc.
  
 This software contains proprietary and confidential information,
 including trade secrets, belonging to Gaussian, Inc.
  
 This software is provided under written license and may be
 used, copied, transmitted, or stored only in accord with that
 written license.
  
 The following legend is applicable only to US Government
 contracts under FAR:
  
                    RESTRICTED RIGHTS LEGEND
  
 Use, reproduction and disclosure by the US Government is
 subject to restrictions as set forth in subparagraphs (a)
 and (c) of the Commercial Computer Software - Restricted
 Rights clause in FAR 52.227-19.
  
 Gaussian, Inc.
 340 Quinnipiac St., Bldg. 40, Wallingford CT 06492
  
  
 ---------------------------------------------------------------
 Warning -- This program may not be used in any manner that
 competes with the business of Gaussian, Inc. or will provide
 assistance to any competitor of Gaussian, Inc.  The licensee
 of this program is prohibited from giving any competitor of
 Gaussian, Inc. access to this program.  By using this program,
 the user acknowledges that Gaussian, Inc. is engaged in the
 business of creating and licensing software in the field of
 computational chemistry and represents and warrants to the
 licensee that it is not a competitor of Gaussian, Inc. and that
 it will not use this program in any manner prohibited above.
 ---------------------------------------------------------------
  

 Cite this work as:
 Gaussian 16, Revision A.03,
 M. J. Frisch, G. W. Trucks, H. B. Schlegel, G. E. Scuseria, 
 M. A. Robb, J. R. Cheeseman, G. Scalmani, V. Barone, 
 G. A. Petersson, H. Nakatsuji, X. Li, M. Caricato, A. V. Marenich, 
 J. Bloino, B. G. Janesko, R. Gomperts, B. Mennucci, H. P. Hratchian, 
 J. V. Ortiz, A. F. Izmaylov, J. L. Sonnenberg, D. Williams-Young, 
 F. Ding, F. Lipparini, F. Egidi, J. Goings, B. Peng, A. Petrone, 
 T. Henderson, D. Ranasinghe, V. G. Zakrzewski, J. Gao, N. Rega, 
 G. Zheng, W. Liang, M. Hada, M. Ehara, K. Toyota, R. Fukuda, 
 J. Hasegawa, M. Ishida, T. Nakajima, Y. Honda, O. Kitao, H. Nakai, 
 T. Vreven, K. Throssell, J. A. Montgomery, Jr., J. E. Peralta, 
 F. Ogliaro, M. J. Bearpark, J. J. Heyd, E. N. Brothers, K. N. Kudin, 
 V. N. Staroverov, T. A. Keith, R. Kobayashi, J. Normand, 
 K. Raghavachari, A. P. Rendell, J. C. Burant, S. S. Iyengar, 
 J. Tomasi, M. Cossi, J. M. Millam, M. Klene, C. Adamo, R. Cammi, 
 J. W. Ochterski, R. L. Martin, K. Morokuma, O. Farkas, 
 J. B. Foresman, and D. J. Fox, Gaussian, Inc., Wallingford CT, 2016.
 
 ******************************************
 Gaussian 16:  ES64L-G16RevA.03 25-Dec-2016
                10-Jun-2022 
 ******************************************
 %nprocshared=12
 Will use up to   12 processors via shared memory.
 %chk=checkpoint.chk
 %mem=12GB
 ------------------------------------------
 # Opt B3LYP/Def2TZVP freq=noraman pop=none
 ------------------------------------------
 1/18=20,19=15,26=3,38=1/1,3;
 2/9=110,12=2,17=6,18=5,40=1/2;
 3/5=44,7=101,11=2,25=1,30=1,71=1,74=-5/1,2,3;
 4//1;
 5/5=2,38=5/2;
 7//1,2,3,16;
 1/18=20,19=15,26=3/3(2);
 2/9=110/2;
 99//99;
 2/9=110/2;
 3/5=44,7=101,11=2,25=1,30=1,71=1,74=-5/1,2,3;
 4/5=5,16=3,69=1/1;
 5/5=2,38=5/2;
 7//1,2,3,16;
 1/18=20,19=15,26=3/3(-5);
 2/9=110/2;
 99/9=1/99;
 -------------
 int_initalOpt
 -------------
 Symbolic Z-matrix:
 Charge =  0 Multiplicity = 1
 6                     2.10619  -0.01922  -0.01036 
 6                     0.82389  -0.66885  -0.48592 
 1                     2.06155   0.1065    1.07037 
 1                     2.28594   0.949    -0.47937 
 1                     2.94822  -0.66693  -0.25995 
 7                    -0.4216    0.00124   0.08146 
 1                     0.76315  -1.69134  -0.1177 
 1                     0.74396  -0.67792  -1.57631 
 8                    -0.37114   0.02945   1.43925 
 6                    -1.61406  -0.79375  -0.35272 
 1                    -2.48932  -0.31157   0.07269 
 1                    -1.5072   -1.78605   0.07517 
 1                    -1.68517  -0.84307  -1.44149 
 6                    -0.55469   1.39756  -0.44779 
 1                     0.28506   1.97178  -0.07233 
 1                    -1.47402   1.80225  -0.03513 
 1                    -0.57981   1.4086   -1.53947 
 

 GradGradGradGradGradGradGradGradGradGradGradGradGradGradGradGradGradGrad
 Berny optimization.
 Initialization pass.
                           ----------------------------
                           !    Initial Parameters    !
                           ! (Angstroms and Degrees)  !
 --------------------------                            --------------------------
 ! Name  Definition              Value          Derivative Info.                !
 --------------------------------------------------------------------------------
 ! R1    R(1,2)                  1.5141         estimate D2E/DX2                !
 ! R2    R(1,3)                  1.0889         estimate D2E/DX2                !
 ! R3    R(1,4)                  1.0907         estimate D2E/DX2                !
 ! R4    R(1,5)                  1.0913         estimate D2E/DX2                !
 ! R5    R(2,6)                  1.5239         estimate D2E/DX2                !
 ! R6    R(2,7)                  1.0885         estimate D2E/DX2                !
 ! R7    R(2,8)                  1.0934         estimate D2E/DX2                !
 ! R8    R(6,9)                  1.359          estimate D2E/DX2                !
 ! R9    R(6,10)                 1.4975         estimate D2E/DX2                !
 ! R10   R(6,14)                 1.4992         estimate D2E/DX2                !
 ! R11   R(10,11)                1.0861         estimate D2E/DX2                !
 ! R12   R(10,12)                1.0859         estimate D2E/DX2                !
 ! R13   R(10,13)                1.0922         estimate D2E/DX2                !
 ! R14   R(14,15)                1.0844         estimate D2E/DX2                !
 ! R15   R(14,16)                1.0859         estimate D2E/DX2                !
 ! R16   R(14,17)                1.092          estimate D2E/DX2                !
 ! A1    A(2,1,3)              109.0589         estimate D2E/DX2                !
 ! A2    A(2,1,4)              112.6661         estimate D2E/DX2                !
 ! A3    A(2,1,5)              109.086          estimate D2E/DX2                !
 ! A4    A(3,1,4)              109.3313         estimate D2E/DX2                !
 ! A5    A(3,1,5)              109.0966         estimate D2E/DX2                !
 ! A6    A(4,1,5)              107.5394         estimate D2E/DX2                !
 ! A7    A(1,2,6)              112.7423         estimate D2E/DX2                !
 ! A8    A(1,2,7)              110.124          estimate D2E/DX2                !
 ! A9    A(1,2,8)              112.2541         estimate D2E/DX2                !
 ! A10   A(6,2,7)              103.9753         estimate D2E/DX2                !
 ! A11   A(6,2,8)              108.3741         estimate D2E/DX2                !
 ! A12   A(7,2,8)              108.9958         estimate D2E/DX2                !
 ! A13   A(2,6,9)              110.5347         estimate D2E/DX2                !
 ! A14   A(2,6,10)             108.0256         estimate D2E/DX2                !
 ! A15   A(2,6,14)             110.5281         estimate D2E/DX2                !
 ! A16   A(9,6,10)             109.2847         estimate D2E/DX2                !
 ! A17   A(9,6,14)             109.6742         estimate D2E/DX2                !
 ! A18   A(10,6,14)            108.7483         estimate D2E/DX2                !
 ! A19   A(6,10,11)            107.0063         estimate D2E/DX2                !
 ! A20   A(6,10,12)            107.0084         estimate D2E/DX2                !
 ! A21   A(6,10,13)            111.3984         estimate D2E/DX2                !
 ! A22   A(11,10,12)           109.3092         estimate D2E/DX2                !
 ! A23   A(11,10,13)           110.9798         estimate D2E/DX2                !
 ! A24   A(12,10,13)           110.9738         estimate D2E/DX2                !
 ! A25   A(6,14,15)            107.5912         estimate D2E/DX2                !
 ! A26   A(6,14,16)            106.7439         estimate D2E/DX2                !
 ! A27   A(6,14,17)            111.3688         estimate D2E/DX2                !
 ! A28   A(15,14,16)           109.0684         estimate D2E/DX2                !
 ! A29   A(15,14,17)           111.0144         estimate D2E/DX2                !
 ! A30   A(16,14,17)           110.8942         estimate D2E/DX2                !
 ! D1    D(3,1,2,6)             48.2861         estimate D2E/DX2                !
 ! D2    D(3,1,2,7)            -67.3393         estimate D2E/DX2                !
 ! D3    D(3,1,2,8)            171.026          estimate D2E/DX2                !
 ! D4    D(4,1,2,6)            -73.3027         estimate D2E/DX2                !
 ! D5    D(4,1,2,7)            171.0719         estimate D2E/DX2                !
 ! D6    D(4,1,2,8)             49.4373         estimate D2E/DX2                !
 ! D7    D(5,1,2,6)            167.3515         estimate D2E/DX2                !
 ! D8    D(5,1,2,7)             51.7261         estimate D2E/DX2                !
 ! D9    D(5,1,2,8)            -69.9085         estimate D2E/DX2                !
 ! D10   D(1,2,6,9)            -55.4529         estimate D2E/DX2                !
 ! D11   D(1,2,6,10)          -174.9754         estimate D2E/DX2                !
 ! D12   D(1,2,6,14)            66.1582         estimate D2E/DX2                !
 ! D13   D(7,2,6,9)             63.8061         estimate D2E/DX2                !
 ! D14   D(7,2,6,10)           -55.7164         estimate D2E/DX2                !
 ! D15   D(7,2,6,14)          -174.5829         estimate D2E/DX2                !
 ! D16   D(8,2,6,9)            179.6621         estimate D2E/DX2                !
 ! D17   D(8,2,6,10)            60.1396         estimate D2E/DX2                !
 ! D18   D(8,2,6,14)           -58.7269         estimate D2E/DX2                !
 ! D19   D(2,6,10,11)          179.1355         estimate D2E/DX2                !
 ! D20   D(2,6,10,12)           62.0603         estimate D2E/DX2                !
 ! D21   D(2,6,10,13)          -59.3991         estimate D2E/DX2                !
 ! D22   D(9,6,10,11)           58.8262         estimate D2E/DX2                !
 ! D23   D(9,6,10,12)          -58.2491         estimate D2E/DX2                !
 ! D24   D(9,6,10,13)         -179.7084         estimate D2E/DX2                !
 ! D25   D(14,6,10,11)         -60.8723         estimate D2E/DX2                !
 ! D26   D(14,6,10,12)        -177.9475         estimate D2E/DX2                !
 ! D27   D(14,6,10,13)          60.5932         estimate D2E/DX2                !
 ! D28   D(2,6,14,15)          -65.0084         estimate D2E/DX2                !
 ! D29   D(2,6,14,16)          178.0372         estimate D2E/DX2                !
 ! D30   D(2,6,14,17)           56.8631         estimate D2E/DX2                !
 ! D31   D(9,6,14,15)           57.1093         estimate D2E/DX2                !
 ! D32   D(9,6,14,16)          -59.8451         estimate D2E/DX2                !
 ! D33   D(9,6,14,17)          178.9808         estimate D2E/DX2                !
 ! D34   D(10,6,14,15)         176.5649         estimate D2E/DX2                !
 ! D35   D(10,6,14,16)          59.6105         estimate D2E/DX2                !
 ! D36   D(10,6,14,17)         -61.5635         estimate D2E/DX2                !
 --------------------------------------------------------------------------------
 Trust Radius=3.00D-01 FncErr=1.00D-07 GrdErr=1.00D-06 EigMax=2.50D+02 EigMin=1.00D-04
 Number of steps in this run=     92 maximum allowed number of steps=    102.
 GradGradGradGradGradGradGradGradGradGradGradGradGradGradGradGradGradGrad

                          Input orientation:                          
 ---------------------------------------------------------------------
 Center     Atomic      Atomic             Coordinates (Angstroms)
 Number     Number       Type             X           Y           Z
 ---------------------------------------------------------------------
      1          6           0        2.106192   -0.019220   -0.010356
      2          6           0        0.823890   -0.668845   -0.485922
      3          1           0        2.061547    0.106500    1.070371
      4          1           0        2.285940    0.948997   -0.479374
      5          1           0        2.948218   -0.666928   -0.259951
      6          7           0       -0.421603    0.001239    0.081462
      7          1           0        0.763147   -1.691341   -0.117702
      8          1           0        0.743962   -0.677917   -1.576313
      9          8           0       -0.371144    0.029447    1.439254
     10          6           0       -1.614059   -0.793748   -0.352720
     11          1           0       -2.489317   -0.311569    0.072686
     12          1           0       -1.507197   -1.786049    0.075166
     13          1           0       -1.685173   -0.843072   -1.441487
     14          6           0       -0.554687    1.397564   -0.447790
     15          1           0        0.285062    1.971776   -0.072332
     16          1           0       -1.474018    1.802245   -0.035132
     17          1           0       -0.579813    1.408598   -1.539469
 ---------------------------------------------------------------------
                    Distance matrix (angstroms):
                    1          2          3          4          5
     1  C    0.000000
     2  C    1.514092   0.000000
     3  H    1.088930   2.134245   0.000000
     4  H    1.090748   2.180607   1.778163   0.000000
     5  H    1.091252   2.136314   1.775988   1.760106   0.000000
     6  N    2.529545   1.523873   2.674893   2.922939   3.452348
     7  H    2.147390   1.088473   2.515868   3.069379   2.417476
     8  H    2.177561   1.093354   3.058803   2.495560   2.567426
     9  O    2.870702   2.371080   2.461706   3.403939   3.793468
    10  C    3.815413   2.444778   4.042983   4.273546   4.564982
    11  H    4.605547   3.378910   4.677662   4.969595   5.459278
    12  H    4.023130   2.645171   4.160301   4.709127   4.606024
    13  H    4.135374   2.690512   4.609667   4.461716   4.784910
    14  C    3.046129   2.484346   3.288820   2.875999   4.070351
    15  H    2.698967   2.726586   2.817964   2.283697   3.753713
    16  H    4.016995   3.404391   4.074053   3.881065   5.069865
    17  H    3.404625   2.719580   3.934909   3.089915   4.288587
                    6          7          8          9         10
     6  N    0.000000
     7  H    2.075603   0.000000
     8  H    2.137291   1.776216   0.000000
     9  O    1.359022   2.582990   3.292031   0.000000
    10  C    1.497488   2.551865   2.659109   2.331021   0.000000
    11  H    2.091260   3.538155   3.647945   2.543709   1.086068
    12  H    2.091161   2.280489   3.003840   2.539169   1.085895
    13  H    2.151475   2.909680   2.438473   3.284301   1.092201
    14  C    1.499181   3.374460   2.695863   2.338026   2.435807
    15  H    2.099058   3.694462   3.081140   2.547183   3.366512
    16  H    2.089209   4.149321   3.666862   2.555965   2.619094
    17  H    2.152465   3.665322   2.471292   3.289132   2.707095
                   11         12         13         14         15
    11  H    0.000000
    12  H    1.771626   0.000000
    13  H    1.794955   1.794747   0.000000
    14  C    2.633405   3.363949   2.699237   0.000000
    15  H    3.596091   4.165957   3.698619   1.084374   0.000000
    16  H    2.347481   3.590142   3.003352   1.085920   1.767622
    17  H    3.033846   3.697683   2.510267   1.092024   1.793786
                   16         17
    16  H    0.000000
    17  H    1.793764   0.000000
 Stoichiometry    C4H11NO
 Framework group  C1[X(C4H11NO)]
 Deg. of freedom    45
 Full point group                 C1      NOp   1
 Largest Abelian subgroup         C1      NOp   1
 Largest concise Abelian subgroup C1      NOp   1
                         Standard orientation:                         
 ---------------------------------------------------------------------
 Center     Atomic      Atomic             Coordinates (Angstroms)
 Number     Number       Type             X           Y           Z
 ---------------------------------------------------------------------
      1          6           0        2.106192   -0.019220   -0.010356
      2          6           0        0.823890   -0.668845   -0.485922
      3          1           0        2.061547    0.106500    1.070371
      4          1           0        2.285940    0.948997   -0.479374
      5          1           0        2.948218   -0.666928   -0.259951
      6          7           0       -0.421603    0.001239    0.081462
      7          1           0        0.763147   -1.691341   -0.117702
      8          1           0        0.743962   -0.677917   -1.576313
      9          8           0       -0.371144    0.029447    1.439254
     10          6           0       -1.614059   -0.793748   -0.352720
     11          1           0       -2.489317   -0.311569    0.072686
     12          1           0       -1.507197   -1.786049    0.075166
     13          1           0       -1.685173   -0.843072   -1.441487
     14          6           0       -0.554687    1.397564   -0.447790
     15          1           0        0.285062    1.971776   -0.072332
     16          1           0       -1.474018    1.802245   -0.035132
     17          1           0       -0.579813    1.408598   -1.539469
 ---------------------------------------------------------------------
 Rotational constants (GHZ):           4.9308562           2.7662964           2.6762146
 Standard basis: def2TZVP (5D, 7F)
 There are   282 symmetry adapted cartesian basis functions of A   symmetry.
 There are   252 symmetry adapted basis functions of A   symmetry.
   252 basis functions,   394 primitive gaussians,   282 cartesian basis functions
    25 alpha electrons       25 beta electrons
       nuclear repulsion energy       274.8054035630 Hartrees.
 NAtoms=   17 NActive=   17 NUniq=   17 SFac= 1.00D+00 NAtFMM=   60 NAOKFM=F Big=F
 Integral buffers will be    131072 words long.
 Raffenetti 2 integral format.
 Two-electron integral symmetry is turned on.
 One-electron integrals computed using PRISM.
   1 Symmetry operations used in ECPInt.
 ECPInt:  NShTT=    6105 NPrTT=   17556 LenC2=    6069 LenP2D=   14639.
 LDataN:  DoStor=T MaxTD1= 6 Len=  172
 NBasis=   252 RedAO= T EigKep=  3.09D-04  NBF=   252
 NBsUse=   252 1.00D-06 EigRej= -1.00D+00 NBFU=   252
 ExpMin= 9.52D-02 ExpMax= 2.70D+04 ExpMxC= 9.22D+02 IAcc=3 IRadAn=         5 AccDes= 0.00D+00
 Harris functional with IExCor=  402 and IRadAn=       5 diagonalized for initial guess.
 HarFok:  IExCor=  402 AccDes= 0.00D+00 IRadAn=         5 IDoV= 1 UseB2=F ITyADJ=14
 ICtDFT=  3500011 ScaDFX=  1.000000  1.000000  1.000000  1.000000
 FoFCou: FMM=F IPFlag=           0 FMFlag=      100000 FMFlg1=           0
         NFxFlg=           0 DoJE=T BraDBF=F KetDBF=T FulRan=T
         wScrn=  0.000000 ICntrl=       500 IOpCl=  0 I1Cent=   200000004 NGrid=           0
         NMat0=    1 NMatS0=      1 NMatT0=    0 NMatD0=    1 NMtDS0=    0 NMtDT0=    0
 Petite list used in FoFCou.
 Requested convergence on RMS density matrix=1.00D-08 within 128 cycles.
 Requested convergence on MAX density matrix=1.00D-06.
 Requested convergence on             energy=1.00D-06.
 No special actions if energy rises.
 Integral accuracy reduced to 1.0D-05 until final iterations.
 Initial convergence to 1.0D-05 achieved.  Increase integral accuracy.
 SCF Done:  E(RB3LYP) =  -289.055061066     A.U. after   14 cycles
            NFock= 14  Conv=0.22D-08     -V/T= 2.0051
   1 Symmetry operations used in ECPInt.
 ECPInt:  NShTT=    6105 NPrTT=   17556 LenC2=    6069 LenP2D=   14639.
 LDataN:  DoStor=T MaxTD1= 7 Len=  274
 Calling FoFJK, ICntrl=      2127 FMM=F ISym2X=0 I1Cent= 0 IOpClX= 0 NMat=1 NMatS=1 NMatT=0.
 ***** Axes restored to original set *****
 -------------------------------------------------------------------
 Center     Atomic                   Forces (Hartrees/Bohr)
 Number     Number              X              Y              Z
 -------------------------------------------------------------------
      1        6           0.000020536    0.000002973    0.000009668
      2        6          -0.000010413   -0.000003963   -0.000008671
      3        1          -0.000003762    0.000002374   -0.000007750
      4        1          -0.000001455   -0.000003671    0.000003487
      5        1          -0.000009219    0.000004838   -0.000003046
      6        7           0.000002686    0.000002451    0.000010016
      7        1           0.000000628    0.000002541   -0.000002294
      8        1          -0.000002854    0.000000271    0.000009198
      9        8          -0.000000791   -0.000001995   -0.000005350
     10        6          -0.000008346   -0.000011287   -0.000006422
     11        1           0.000005384   -0.000001718   -0.000002653
     12        1           0.000000173    0.000003517   -0.000000344
     13        1           0.000004034    0.000001629    0.000008599
     14        6          -0.000000140    0.000008171   -0.000007377
     15        1          -0.000003854    0.000001726   -0.000003576
     16        1           0.000006105   -0.000005448   -0.000000859
     17        1           0.000001290   -0.000002407    0.000007373
 -------------------------------------------------------------------
 Cartesian Forces:  Max     0.000020536 RMS     0.000006046

 GradGradGradGradGradGradGradGradGradGradGradGradGradGradGradGradGradGrad
 Berny optimization.
 FormGI is forming the generalized inverse of G from B-inverse, IUseBI=4.
 Internal  Forces:  Max     0.000008955 RMS     0.000003556
 Search for a local minimum.
 Step number   1 out of a maximum of   92
 All quantities printed in internal units (Hartrees-Bohrs-Radians)
 Mixed Optimization -- En-DIIS/RFO-DIIS
 Second derivative matrix not updated -- first step.
 ITU=  0
     Eigenvalues ---    0.00230   0.00380   0.00402   0.00580   0.03610
     Eigenvalues ---    0.04931   0.04937   0.05604   0.05695   0.05726
     Eigenvalues ---    0.05980   0.06230   0.06263   0.06291   0.06798
     Eigenvalues ---    0.08306   0.12164   0.16000   0.16000   0.16000
     Eigenvalues ---    0.16000   0.16000   0.16000   0.16000   0.16000
     Eigenvalues ---    0.16000   0.17249   0.17671   0.22003   0.29997
     Eigenvalues ---    0.30943   0.32463   0.32642   0.34428   0.34559
     Eigenvalues ---    0.34580   0.34668   0.34726   0.34937   0.34990
     Eigenvalues ---    0.35271   0.35288   0.35291   0.35471   0.53146
 RFO step:  Lambda= 0.00000000D+00 EMin= 2.30000000D-03
 Linear search not attempted -- first point.
 Iteration  1 RMS(Cart)=  0.00010842 RMS(Int)=  0.00000001
 Iteration  2 RMS(Cart)=  0.00000001 RMS(Int)=  0.00000000
 Variable       Old X    -DE/DX   Delta X   Delta X   Delta X     New X
                                 (Linear)    (Quad)   (Total)
    R1        2.86122   0.00001   0.00000   0.00002   0.00002   2.86124
    R2        2.05778  -0.00001   0.00000  -0.00002  -0.00002   2.05776
    R3        2.06122  -0.00001   0.00000  -0.00002  -0.00002   2.06120
    R4        2.06217  -0.00001   0.00000  -0.00003  -0.00003   2.06214
    R5        2.87970  -0.00001   0.00000  -0.00002  -0.00002   2.87968
    R6        2.05692  -0.00000   0.00000  -0.00001  -0.00001   2.05691
    R7        2.06614  -0.00001   0.00000  -0.00003  -0.00003   2.06611
    R8        2.56818  -0.00001   0.00000  -0.00001  -0.00001   2.56817
    R9        2.82984   0.00000   0.00000   0.00001   0.00001   2.82985
   R10        2.83304   0.00000   0.00000   0.00001   0.00001   2.83305
   R11        2.05237  -0.00001   0.00000  -0.00002  -0.00002   2.05235
   R12        2.05204  -0.00000   0.00000  -0.00001  -0.00001   2.05203
   R13        2.06396  -0.00001   0.00000  -0.00003  -0.00003   2.06394
   R14        2.04917  -0.00000   0.00000  -0.00001  -0.00001   2.04916
   R15        2.05209  -0.00001   0.00000  -0.00002  -0.00002   2.05207
   R16        2.06363  -0.00001   0.00000  -0.00002  -0.00002   2.06360
    A1        1.90344  -0.00000   0.00000  -0.00001  -0.00001   1.90342
    A2        1.96639   0.00000   0.00000   0.00000   0.00000   1.96640
    A3        1.90391  -0.00001   0.00000  -0.00003  -0.00003   1.90388
    A4        1.90819  -0.00000   0.00000  -0.00001  -0.00001   1.90818
    A5        1.90410   0.00001   0.00000   0.00005   0.00005   1.90415
    A6        1.87692   0.00000   0.00000   0.00000   0.00000   1.87692
    A7        1.96772   0.00000   0.00000   0.00001   0.00001   1.96774
    A8        1.92203  -0.00000   0.00000   0.00000   0.00000   1.92203
    A9        1.95920   0.00000   0.00000   0.00002   0.00002   1.95922
   A10        1.81471   0.00000   0.00000   0.00001   0.00001   1.81472
   A11        1.89149  -0.00000   0.00000  -0.00004  -0.00004   1.89145
   A12        1.90234  -0.00000   0.00000  -0.00001  -0.00001   1.90233
   A13        1.92919   0.00000   0.00000   0.00002   0.00002   1.92922
   A14        1.88540  -0.00000   0.00000  -0.00005  -0.00005   1.88535
   A15        1.92908  -0.00000   0.00000  -0.00003  -0.00003   1.92905
   A16        1.90738  -0.00000   0.00000   0.00001   0.00001   1.90739
   A17        1.91418   0.00000   0.00000   0.00003   0.00003   1.91421
   A18        1.89802   0.00000   0.00000   0.00000   0.00000   1.89802
   A19        1.86761  -0.00000   0.00000  -0.00001  -0.00001   1.86761
   A20        1.86765   0.00000   0.00000   0.00001   0.00001   1.86766
   A21        1.94427  -0.00001   0.00000  -0.00004  -0.00004   1.94423
   A22        1.90781   0.00000   0.00000   0.00001   0.00001   1.90782
   A23        1.93696   0.00000   0.00000   0.00001   0.00001   1.93697
   A24        1.93686   0.00000   0.00000   0.00002   0.00002   1.93687
   A25        1.87782   0.00001   0.00000   0.00005   0.00005   1.87787
   A26        1.86303  -0.00000   0.00000  -0.00003  -0.00003   1.86300
   A27        1.94375  -0.00000   0.00000  -0.00002  -0.00002   1.94373
   A28        1.90360  -0.00000   0.00000  -0.00000  -0.00000   1.90360
   A29        1.93757  -0.00000   0.00000  -0.00001  -0.00001   1.93756
   A30        1.93547   0.00000   0.00000   0.00001   0.00001   1.93548
    D1        0.84275   0.00000   0.00000   0.00004   0.00004   0.84279
    D2       -1.17529  -0.00000   0.00000   0.00001   0.00001  -1.17528
    D3        2.98497  -0.00000   0.00000   0.00001   0.00001   2.98498
    D4       -1.27937   0.00000   0.00000   0.00006   0.00006  -1.27931
    D5        2.98577  -0.00000   0.00000   0.00004   0.00004   2.98581
    D6        0.86284  -0.00000   0.00000   0.00003   0.00003   0.86288
    D7        2.92084   0.00000   0.00000   0.00008   0.00008   2.92091
    D8        0.90279   0.00000   0.00000   0.00005   0.00005   0.90284
    D9       -1.22013   0.00000   0.00000   0.00005   0.00005  -1.22009
   D10       -0.96783  -0.00000   0.00000   0.00012   0.00012  -0.96772
   D11       -3.05390   0.00000   0.00000   0.00012   0.00012  -3.05377
   D12        1.15468   0.00000   0.00000   0.00016   0.00016   1.15484
   D13        1.11363   0.00000   0.00000   0.00014   0.00014   1.11377
   D14       -0.97244   0.00000   0.00000   0.00014   0.00014  -0.97229
   D15       -3.04705   0.00000   0.00000   0.00018   0.00018  -3.04686
   D16        3.13570  -0.00000   0.00000   0.00012   0.00012   3.13581
   D17        1.04963  -0.00000   0.00000   0.00012   0.00012   1.04975
   D18       -1.02498  -0.00000   0.00000   0.00016   0.00016  -1.02482
   D19        3.12650   0.00000   0.00000   0.00015   0.00015   3.12666
   D20        1.08316   0.00000   0.00000   0.00014   0.00014   1.08329
   D21       -1.03671   0.00000   0.00000   0.00014   0.00014  -1.03657
   D22        1.02671   0.00000   0.00000   0.00015   0.00015   1.02686
   D23       -1.01664   0.00000   0.00000   0.00013   0.00013  -1.01651
   D24       -3.13650   0.00000   0.00000   0.00013   0.00013  -3.13637
   D25       -1.06242  -0.00000   0.00000   0.00010   0.00010  -1.06232
   D26       -3.10577  -0.00000   0.00000   0.00008   0.00008  -3.10569
   D27        1.05755  -0.00000   0.00000   0.00008   0.00008   1.05763
   D28       -1.13461  -0.00000   0.00000  -0.00002  -0.00002  -1.13463
   D29        3.10733  -0.00000   0.00000  -0.00003  -0.00003   3.10731
   D30        0.99245  -0.00000   0.00000  -0.00001  -0.00001   0.99243
   D31        0.99675   0.00000   0.00000   0.00001   0.00001   0.99676
   D32       -1.04449  -0.00000   0.00000   0.00001   0.00001  -1.04449
   D33        3.12380   0.00000   0.00000   0.00002   0.00002   3.12383
   D34        3.08164   0.00000   0.00000   0.00005   0.00005   3.08169
   D35        1.04040   0.00000   0.00000   0.00004   0.00004   1.04044
   D36       -1.07449   0.00000   0.00000   0.00006   0.00006  -1.07443
         Item               Value     Threshold  Converged?
 Maximum Force            0.000009     0.000450     YES
 RMS     Force            0.000004     0.000300     YES
 Maximum Displacement     0.000368     0.001800     YES
 RMS     Displacement     0.000108     0.001200     YES
 Predicted change in Energy=-3.112752D-09
 Optimization completed.
    -- Stationary point found.
                           ----------------------------
                           !   Optimized Parameters   !
                           ! (Angstroms and Degrees)  !
 --------------------------                            --------------------------
 ! Name  Definition              Value          Derivative Info.                !
 --------------------------------------------------------------------------------
 ! R1    R(1,2)                  1.5141         -DE/DX =    0.0                 !
 ! R2    R(1,3)                  1.0889         -DE/DX =    0.0                 !
 ! R3    R(1,4)                  1.0907         -DE/DX =    0.0                 !
 ! R4    R(1,5)                  1.0913         -DE/DX =    0.0                 !
 ! R5    R(2,6)                  1.5239         -DE/DX =    0.0                 !
 ! R6    R(2,7)                  1.0885         -DE/DX =    0.0                 !
 ! R7    R(2,8)                  1.0934         -DE/DX =    0.0                 !
 ! R8    R(6,9)                  1.359          -DE/DX =    0.0                 !
 ! R9    R(6,10)                 1.4975         -DE/DX =    0.0                 !
 ! R10   R(6,14)                 1.4992         -DE/DX =    0.0                 !
 ! R11   R(10,11)                1.0861         -DE/DX =    0.0                 !
 ! R12   R(10,12)                1.0859         -DE/DX =    0.0                 !
 ! R13   R(10,13)                1.0922         -DE/DX =    0.0                 !
 ! R14   R(14,15)                1.0844         -DE/DX =    0.0                 !
 ! R15   R(14,16)                1.0859         -DE/DX =    0.0                 !
 ! R16   R(14,17)                1.092          -DE/DX =    0.0                 !
 ! A1    A(2,1,3)              109.0589         -DE/DX =    0.0                 !
 ! A2    A(2,1,4)              112.6661         -DE/DX =    0.0                 !
 ! A3    A(2,1,5)              109.086          -DE/DX =    0.0                 !
 ! A4    A(3,1,4)              109.3313         -DE/DX =    0.0                 !
 ! A5    A(3,1,5)              109.0966         -DE/DX =    0.0                 !
 ! A6    A(4,1,5)              107.5394         -DE/DX =    0.0                 !
 ! A7    A(1,2,6)              112.7423         -DE/DX =    0.0                 !
 ! A8    A(1,2,7)              110.124          -DE/DX =    0.0                 !
 ! A9    A(1,2,8)              112.2541         -DE/DX =    0.0                 !
 ! A10   A(6,2,7)              103.9753         -DE/DX =    0.0                 !
 ! A11   A(6,2,8)              108.3741         -DE/DX =    0.0                 !
 ! A12   A(7,2,8)              108.9958         -DE/DX =    0.0                 !
 ! A13   A(2,6,9)              110.5347         -DE/DX =    0.0                 !
 ! A14   A(2,6,10)             108.0256         -DE/DX =    0.0                 !
 ! A15   A(2,6,14)             110.5281         -DE/DX =    0.0                 !
 ! A16   A(9,6,10)             109.2847         -DE/DX =    0.0                 !
 ! A17   A(9,6,14)             109.6742         -DE/DX =    0.0                 !
 ! A18   A(10,6,14)            108.7483         -DE/DX =    0.0                 !
 ! A19   A(6,10,11)            107.0063         -DE/DX =    0.0                 !
 ! A20   A(6,10,12)            107.0084         -DE/DX =    0.0                 !
 ! A21   A(6,10,13)            111.3984         -DE/DX =    0.0                 !
 ! A22   A(11,10,12)           109.3092         -DE/DX =    0.0                 !
 ! A23   A(11,10,13)           110.9798         -DE/DX =    0.0                 !
 ! A24   A(12,10,13)           110.9738         -DE/DX =    0.0                 !
 ! A25   A(6,14,15)            107.5912         -DE/DX =    0.0                 !
 ! A26   A(6,14,16)            106.7439         -DE/DX =    0.0                 !
 ! A27   A(6,14,17)            111.3688         -DE/DX =    0.0                 !
 ! A28   A(15,14,16)           109.0684         -DE/DX =    0.0                 !
 ! A29   A(15,14,17)           111.0144         -DE/DX =    0.0                 !
 ! A30   A(16,14,17)           110.8942         -DE/DX =    0.0                 !
 ! D1    D(3,1,2,6)             48.2861         -DE/DX =    0.0                 !
 ! D2    D(3,1,2,7)            -67.3393         -DE/DX =    0.0                 !
 ! D3    D(3,1,2,8)            171.026          -DE/DX =    0.0                 !
 ! D4    D(4,1,2,6)            -73.3027         -DE/DX =    0.0                 !
 ! D5    D(4,1,2,7)            171.0719         -DE/DX =    0.0                 !
 ! D6    D(4,1,2,8)             49.4373         -DE/DX =    0.0                 !
 ! D7    D(5,1,2,6)            167.3515         -DE/DX =    0.0                 !
 ! D8    D(5,1,2,7)             51.7261         -DE/DX =    0.0                 !
 ! D9    D(5,1,2,8)            -69.9085         -DE/DX =    0.0                 !
 ! D10   D(1,2,6,9)            -55.4529         -DE/DX =    0.0                 !
 ! D11   D(1,2,6,10)          -174.9754         -DE/DX =    0.0                 !
 ! D12   D(1,2,6,14)            66.1582         -DE/DX =    0.0                 !
 ! D13   D(7,2,6,9)             63.8061         -DE/DX =    0.0                 !
 ! D14   D(7,2,6,10)           -55.7164         -DE/DX =    0.0                 !
 ! D15   D(7,2,6,14)          -174.5829         -DE/DX =    0.0                 !
 ! D16   D(8,2,6,9)            179.6621         -DE/DX =    0.0                 !
 ! D17   D(8,2,6,10)            60.1396         -DE/DX =    0.0                 !
 ! D18   D(8,2,6,14)           -58.7269         -DE/DX =    0.0                 !
 ! D19   D(2,6,10,11)          179.1355         -DE/DX =    0.0                 !
 ! D20   D(2,6,10,12)           62.0603         -DE/DX =    0.0                 !
 ! D21   D(2,6,10,13)          -59.3991         -DE/DX =    0.0                 !
 ! D22   D(9,6,10,11)           58.8262         -DE/DX =    0.0                 !
 ! D23   D(9,6,10,12)          -58.2491         -DE/DX =    0.0                 !
 ! D24   D(9,6,10,13)         -179.7084         -DE/DX =    0.0                 !
 ! D25   D(14,6,10,11)         -60.8723         -DE/DX =    0.0                 !
 ! D26   D(14,6,10,12)        -177.9475         -DE/DX =    0.0                 !
 ! D27   D(14,6,10,13)          60.5932         -DE/DX =    0.0                 !
 ! D28   D(2,6,14,15)          -65.0084         -DE/DX =    0.0                 !
 ! D29   D(2,6,14,16)          178.0372         -DE/DX =    0.0                 !
 ! D30   D(2,6,14,17)           56.8631         -DE/DX =    0.0                 !
 ! D31   D(9,6,14,15)           57.1093         -DE/DX =    0.0                 !
 ! D32   D(9,6,14,16)          -59.8451         -DE/DX =    0.0                 !
 ! D33   D(9,6,14,17)          178.9808         -DE/DX =    0.0                 !
 ! D34   D(10,6,14,15)         176.5649         -DE/DX =    0.0                 !
 ! D35   D(10,6,14,16)          59.6105         -DE/DX =    0.0                 !
 ! D36   D(10,6,14,17)         -61.5635         -DE/DX =    0.0                 !
 --------------------------------------------------------------------------------
 GradGradGradGradGradGradGradGradGradGradGradGradGradGradGradGradGradGrad

                          Input orientation:                          
 ---------------------------------------------------------------------
 Center     Atomic      Atomic             Coordinates (Angstroms)
 Number     Number       Type             X           Y           Z
 ---------------------------------------------------------------------
      1          6           0        2.106192   -0.019220   -0.010356
      2          6           0        0.823890   -0.668845   -0.485922
      3          1           0        2.061547    0.106500    1.070371
      4          1           0        2.285940    0.948997   -0.479374
      5          1           0        2.948218   -0.666928   -0.259951
      6          7           0       -0.421603    0.001239    0.081462
      7          1           0        0.763147   -1.691341   -0.117702
      8          1           0        0.743962   -0.677917   -1.576313
      9          8           0       -0.371144    0.029447    1.439254
     10          6           0       -1.614059   -0.793748   -0.352720
     11          1           0       -2.489317   -0.311569    0.072686
     12          1           0       -1.507197   -1.786049    0.075166
     13          1           0       -1.685173   -0.843072   -1.441487
     14          6           0       -0.554687    1.397564   -0.447790
     15          1           0        0.285062    1.971776   -0.072332
     16          1           0       -1.474018    1.802245   -0.035132
     17          1           0       -0.579813    1.408598   -1.539469
 ---------------------------------------------------------------------
                    Distance matrix (angstroms):
                    1          2          3          4          5
     1  C    0.000000
     2  C    1.514092   0.000000
     3  H    1.088930   2.134245   0.000000
     4  H    1.090748   2.180607   1.778163   0.000000
     5  H    1.091252   2.136314   1.775988   1.760106   0.000000
     6  N    2.529545   1.523873   2.674893   2.922939   3.452348
     7  H    2.147390   1.088473   2.515868   3.069379   2.417476
     8  H    2.177561   1.093354   3.058803   2.495560   2.567426
     9  O    2.870702   2.371080   2.461706   3.403939   3.793468
    10  C    3.815413   2.444778   4.042983   4.273546   4.564982
    11  H    4.605547   3.378910   4.677662   4.969595   5.459278
    12  H    4.023130   2.645171   4.160301   4.709127   4.606024
    13  H    4.135374   2.690512   4.609667   4.461716   4.784910
    14  C    3.046129   2.484346   3.288820   2.875999   4.070351
    15  H    2.698967   2.726586   2.817964   2.283697   3.753713
    16  H    4.016995   3.404391   4.074053   3.881065   5.069865
    17  H    3.404625   2.719580   3.934909   3.089915   4.288587
                    6          7          8          9         10
     6  N    0.000000
     7  H    2.075603   0.000000
     8  H    2.137291   1.776216   0.000000
     9  O    1.359022   2.582990   3.292031   0.000000
    10  C    1.497488   2.551865   2.659109   2.331021   0.000000
    11  H    2.091260   3.538155   3.647945   2.543709   1.086068
    12  H    2.091161   2.280489   3.003840   2.539169   1.085895
    13  H    2.151475   2.909680   2.438473   3.284301   1.092201
    14  C    1.499181   3.374460   2.695863   2.338026   2.435807
    15  H    2.099058   3.694462   3.081140   2.547183   3.366512
    16  H    2.089209   4.149321   3.666862   2.555965   2.619094
    17  H    2.152465   3.665322   2.471292   3.289132   2.707095
                   11         12         13         14         15
    11  H    0.000000
    12  H    1.771626   0.000000
    13  H    1.794955   1.794747   0.000000
    14  C    2.633405   3.363949   2.699237   0.000000
    15  H    3.596091   4.165957   3.698619   1.084374   0.000000
    16  H    2.347481   3.590142   3.003352   1.085920   1.767622
    17  H    3.033846   3.697683   2.510267   1.092024   1.793786
                   16         17
    16  H    0.000000
    17  H    1.793764   0.000000
 Stoichiometry    C4H11NO
 Framework group  C1[X(C4H11NO)]
 Deg. of freedom    45
 Full point group                 C1      NOp   1
 Largest Abelian subgroup         C1      NOp   1
 Largest concise Abelian subgroup C1      NOp   1
                         Standard orientation:                         
 ---------------------------------------------------------------------
 Center     Atomic      Atomic             Coordinates (Angstroms)
 Number     Number       Type             X           Y           Z
 ---------------------------------------------------------------------
      1          6           0        2.106192   -0.019220   -0.010356
      2          6           0        0.823890   -0.668845   -0.485922
      3          1           0        2.061547    0.106500    1.070371
      4          1           0        2.285940    0.948997   -0.479374
      5          1           0        2.948218   -0.666928   -0.259951
      6          7           0       -0.421603    0.001239    0.081462
      7          1           0        0.763147   -1.691341   -0.117702
      8          1           0        0.743962   -0.677917   -1.576313
      9          8           0       -0.371144    0.029447    1.439254
     10          6           0       -1.614059   -0.793748   -0.352720
     11          1           0       -2.489317   -0.311569    0.072686
     12          1           0       -1.507197   -1.786049    0.075166
     13          1           0       -1.685173   -0.843072   -1.441487
     14          6           0       -0.554687    1.397564   -0.447790
     15          1           0        0.285062    1.971776   -0.072332
     16          1           0       -1.474018    1.802245   -0.035132
     17          1           0       -0.579813    1.408598   -1.539469
 ---------------------------------------------------------------------
 Rotational constants (GHZ):           4.9308562           2.7662964           2.6762146
 1\1\GINC-BHC0028\FOpt\RB3LYP\def2TZVP\C4H11N1O1\DHANAWAY\10-Jun-2022\0
 \\# Opt B3LYP/Def2TZVP freq=noraman pop=none\\int_initalOpt\\0,1\C,2.1
 06192,-0.01922,-0.010356\C,0.82389,-0.668845,-0.485922\H,2.061547,0.10
 65,1.070371\H,2.28594,0.948997,-0.479374\H,2.948218,-0.666928,-0.25995
 1\N,-0.421603,0.001239,0.081462\H,0.763147,-1.691341,-0.117702\H,0.743
 962,-0.677917,-1.576313\O,-0.371144,0.029447,1.439254\C,-1.614059,-0.7
 93748,-0.35272\H,-2.489317,-0.311569,0.072686\H,-1.507197,-1.786049,0.
 075166\H,-1.685173,-0.843072,-1.441487\C,-0.554687,1.397564,-0.44779\H
 ,0.285062,1.971776,-0.072332\H,-1.474018,1.802245,-0.035132\H,-0.57981
 3,1.408598,-1.539469\\Version=ES64L-G16RevA.03\HF=-289.0550611\RMSD=2.
 234e-09\RMSF=6.046e-06\Dipole=-0.0169873,-0.039976,-1.7630046\PG=C01 [
 X(C4H11N1O1)]\\@


 I DON'T EXACTLY UNDERSTAND WHAT YOU ARE SAYING,
 BUT YOU ARE ABSOLUTELY RIGHT.
     M.S.GORDON, IN A NDSU FACULTY MEETING
 Job cpu time:       0 days  0 hours  9 minutes 12.0 seconds.
 Elapsed time:       0 days  0 hours  0 minutes 46.3 seconds.
 File lengths (MBytes):  RWF=     40 Int=      0 D2E=      0 Chk=     32 Scr=      1
 Normal termination of Gaussian 16 at Fri Jun 10 10:31:10 2022.
 Link1:  Proceeding to internal job step number  2.
 --------------------------------------------------------------------
 #N Geom=AllCheck Guess=TCheck SCRF=Check GenChk RB3LYP/def2TZVP Freq
 --------------------------------------------------------------------
 1/10=4,29=7,30=1,38=1,40=1/1,3;
 2/12=2,40=1/2;
 3/5=44,7=101,11=2,14=-4,25=1,30=1,70=2,71=2,74=-5,116=1,140=1/1,2,3;
 4/5=101/1;
 5/5=2,38=6,98=1/2;
 8/6=4,10=90,11=11/1;
 11/6=1,8=1,9=11,15=111,16=1/1,2,10;
 10/6=1/2;
 7/8=1,10=1,25=1/1,2,3,16;
 1/10=4,30=1/3;
 99//99;
 Structure from the checkpoint file:  "checkpoint.chk"
 -------------
 int_initalOpt
 -------------
 Charge =  0 Multiplicity = 1
 Redundant internal coordinates found in file.  (old form).
 C,0,2.106192,-0.01922,-0.010356
 C,0,0.82389,-0.668845,-0.485922
 H,0,2.061547,0.1065,1.070371
 H,0,2.28594,0.948997,-0.479374
 H,0,2.948218,-0.666928,-0.259951
 N,0,-0.421603,0.001239,0.081462
 H,0,0.763147,-1.691341,-0.117702
 H,0,0.743962,-0.677917,-1.576313
 O,0,-0.371144,0.029447,1.439254
 C,0,-1.614059,-0.793748,-0.35272
 H,0,-2.489317,-0.311569,0.072686
 H,0,-1.507197,-1.786049,0.075166
 H,0,-1.685173,-0.843072,-1.441487
 C,0,-0.554687,1.397564,-0.44779
 H,0,0.285062,1.971776,-0.072332
 H,0,-1.474018,1.802245,-0.035132
 H,0,-0.579813,1.408598,-1.539469
 Recover connectivity data from disk.

 GradGradGradGradGradGradGradGradGradGradGradGradGradGradGradGradGradGrad
 Berny optimization.
 Initialization pass.
                           ----------------------------
                           !    Initial Parameters    !
                           ! (Angstroms and Degrees)  !
 --------------------------                            --------------------------
 ! Name  Definition              Value          Derivative Info.                !
 --------------------------------------------------------------------------------
 ! R1    R(1,2)                  1.5141         calculate D2E/DX2 analytically  !
 ! R2    R(1,3)                  1.0889         calculate D2E/DX2 analytically  !
 ! R3    R(1,4)                  1.0907         calculate D2E/DX2 analytically  !
 ! R4    R(1,5)                  1.0913         calculate D2E/DX2 analytically  !
 ! R5    R(2,6)                  1.5239         calculate D2E/DX2 analytically  !
 ! R6    R(2,7)                  1.0885         calculate D2E/DX2 analytically  !
 ! R7    R(2,8)                  1.0934         calculate D2E/DX2 analytically  !
 ! R8    R(6,9)                  1.359          calculate D2E/DX2 analytically  !
 ! R9    R(6,10)                 1.4975         calculate D2E/DX2 analytically  !
 ! R10   R(6,14)                 1.4992         calculate D2E/DX2 analytically  !
 ! R11   R(10,11)                1.0861         calculate D2E/DX2 analytically  !
 ! R12   R(10,12)                1.0859         calculate D2E/DX2 analytically  !
 ! R13   R(10,13)                1.0922         calculate D2E/DX2 analytically  !
 ! R14   R(14,15)                1.0844         calculate D2E/DX2 analytically  !
 ! R15   R(14,16)                1.0859         calculate D2E/DX2 analytically  !
 ! R16   R(14,17)                1.092          calculate D2E/DX2 analytically  !
 ! A1    A(2,1,3)              109.0589         calculate D2E/DX2 analytically  !
 ! A2    A(2,1,4)              112.6661         calculate D2E/DX2 analytically  !
 ! A3    A(2,1,5)              109.086          calculate D2E/DX2 analytically  !
 ! A4    A(3,1,4)              109.3313         calculate D2E/DX2 analytically  !
 ! A5    A(3,1,5)              109.0966         calculate D2E/DX2 analytically  !
 ! A6    A(4,1,5)              107.5394         calculate D2E/DX2 analytically  !
 ! A7    A(1,2,6)              112.7423         calculate D2E/DX2 analytically  !
 ! A8    A(1,2,7)              110.124          calculate D2E/DX2 analytically  !
 ! A9    A(1,2,8)              112.2541         calculate D2E/DX2 analytically  !
 ! A10   A(6,2,7)              103.9753         calculate D2E/DX2 analytically  !
 ! A11   A(6,2,8)              108.3741         calculate D2E/DX2 analytically  !
 ! A12   A(7,2,8)              108.9958         calculate D2E/DX2 analytically  !
 ! A13   A(2,6,9)              110.5347         calculate D2E/DX2 analytically  !
 ! A14   A(2,6,10)             108.0256         calculate D2E/DX2 analytically  !
 ! A15   A(2,6,14)             110.5281         calculate D2E/DX2 analytically  !
 ! A16   A(9,6,10)             109.2847         calculate D2E/DX2 analytically  !
 ! A17   A(9,6,14)             109.6742         calculate D2E/DX2 analytically  !
 ! A18   A(10,6,14)            108.7483         calculate D2E/DX2 analytically  !
 ! A19   A(6,10,11)            107.0063         calculate D2E/DX2 analytically  !
 ! A20   A(6,10,12)            107.0084         calculate D2E/DX2 analytically  !
 ! A21   A(6,10,13)            111.3984         calculate D2E/DX2 analytically  !
 ! A22   A(11,10,12)           109.3092         calculate D2E/DX2 analytically  !
 ! A23   A(11,10,13)           110.9798         calculate D2E/DX2 analytically  !
 ! A24   A(12,10,13)           110.9738         calculate D2E/DX2 analytically  !
 ! A25   A(6,14,15)            107.5912         calculate D2E/DX2 analytically  !
 ! A26   A(6,14,16)            106.7439         calculate D2E/DX2 analytically  !
 ! A27   A(6,14,17)            111.3688         calculate D2E/DX2 analytically  !
 ! A28   A(15,14,16)           109.0684         calculate D2E/DX2 analytically  !
 ! A29   A(15,14,17)           111.0144         calculate D2E/DX2 analytically  !
 ! A30   A(16,14,17)           110.8942         calculate D2E/DX2 analytically  !
 ! D1    D(3,1,2,6)             48.2861         calculate D2E/DX2 analytically  !
 ! D2    D(3,1,2,7)            -67.3393         calculate D2E/DX2 analytically  !
 ! D3    D(3,1,2,8)            171.026          calculate D2E/DX2 analytically  !
 ! D4    D(4,1,2,6)            -73.3027         calculate D2E/DX2 analytically  !
 ! D5    D(4,1,2,7)            171.0719         calculate D2E/DX2 analytically  !
 ! D6    D(4,1,2,8)             49.4373         calculate D2E/DX2 analytically  !
 ! D7    D(5,1,2,6)            167.3515         calculate D2E/DX2 analytically  !
 ! D8    D(5,1,2,7)             51.7261         calculate D2E/DX2 analytically  !
 ! D9    D(5,1,2,8)            -69.9085         calculate D2E/DX2 analytically  !
 ! D10   D(1,2,6,9)            -55.4529         calculate D2E/DX2 analytically  !
 ! D11   D(1,2,6,10)          -174.9754         calculate D2E/DX2 analytically  !
 ! D12   D(1,2,6,14)            66.1582         calculate D2E/DX2 analytically  !
 ! D13   D(7,2,6,9)             63.8061         calculate D2E/DX2 analytically  !
 ! D14   D(7,2,6,10)           -55.7164         calculate D2E/DX2 analytically  !
 ! D15   D(7,2,6,14)          -174.5829         calculate D2E/DX2 analytically  !
 ! D16   D(8,2,6,9)            179.6621         calculate D2E/DX2 analytically  !
 ! D17   D(8,2,6,10)            60.1396         calculate D2E/DX2 analytically  !
 ! D18   D(8,2,6,14)           -58.7269         calculate D2E/DX2 analytically  !
 ! D19   D(2,6,10,11)          179.1355         calculate D2E/DX2 analytically  !
 ! D20   D(2,6,10,12)           62.0603         calculate D2E/DX2 analytically  !
 ! D21   D(2,6,10,13)          -59.3991         calculate D2E/DX2 analytically  !
 ! D22   D(9,6,10,11)           58.8262         calculate D2E/DX2 analytically  !
 ! D23   D(9,6,10,12)          -58.2491         calculate D2E/DX2 analytically  !
 ! D24   D(9,6,10,13)         -179.7084         calculate D2E/DX2 analytically  !
 ! D25   D(14,6,10,11)         -60.8723         calculate D2E/DX2 analytically  !
 ! D26   D(14,6,10,12)        -177.9475         calculate D2E/DX2 analytically  !
 ! D27   D(14,6,10,13)          60.5932         calculate D2E/DX2 analytically  !
 ! D28   D(2,6,14,15)          -65.0084         calculate D2E/DX2 analytically  !
 ! D29   D(2,6,14,16)          178.0372         calculate D2E/DX2 analytically  !
 ! D30   D(2,6,14,17)           56.8631         calculate D2E/DX2 analytically  !
 ! D31   D(9,6,14,15)           57.1093         calculate D2E/DX2 analytically  !
 ! D32   D(9,6,14,16)          -59.8451         calculate D2E/DX2 analytically  !
 ! D33   D(9,6,14,17)          178.9808         calculate D2E/DX2 analytically  !
 ! D34   D(10,6,14,15)         176.5649         calculate D2E/DX2 analytically  !
 ! D35   D(10,6,14,16)          59.6105         calculate D2E/DX2 analytically  !
 ! D36   D(10,6,14,17)         -61.5635         calculate D2E/DX2 analytically  !
 --------------------------------------------------------------------------------
 Trust Radius=3.00D-01 FncErr=1.00D-07 GrdErr=1.00D-07 EigMax=2.50D+02 EigMin=1.00D-04
 Number of steps in this run=      2 maximum allowed number of steps=      2.
 GradGradGradGradGradGradGradGradGradGradGradGradGradGradGradGradGradGrad

                          Input orientation:                          
 ---------------------------------------------------------------------
 Center     Atomic      Atomic             Coordinates (Angstroms)
 Number     Number       Type             X           Y           Z
 ---------------------------------------------------------------------
      1          6           0        2.106192   -0.019220   -0.010356
      2          6           0        0.823890   -0.668845   -0.485922
      3          1           0        2.061547    0.106500    1.070371
      4          1           0        2.285940    0.948997   -0.479374
      5          1           0        2.948218   -0.666928   -0.259951
      6          7           0       -0.421603    0.001239    0.081462
      7          1           0        0.763147   -1.691341   -0.117702
      8          1           0        0.743962   -0.677917   -1.576313
      9          8           0       -0.371144    0.029447    1.439254
     10          6           0       -1.614059   -0.793748   -0.352720
     11          1           0       -2.489317   -0.311569    0.072686
     12          1           0       -1.507197   -1.786049    0.075166
     13          1           0       -1.685173   -0.843072   -1.441487
     14          6           0       -0.554687    1.397564   -0.447790
     15          1           0        0.285062    1.971776   -0.072332
     16          1           0       -1.474018    1.802245   -0.035132
     17          1           0       -0.579813    1.408598   -1.539469
 ---------------------------------------------------------------------
                    Distance matrix (angstroms):
                    1          2          3          4          5
     1  C    0.000000
     2  C    1.514092   0.000000
     3  H    1.088930   2.134245   0.000000
     4  H    1.090748   2.180607   1.778163   0.000000
     5  H    1.091252   2.136314   1.775988   1.760106   0.000000
     6  N    2.529545   1.523873   2.674893   2.922939   3.452348
     7  H    2.147390   1.088473   2.515868   3.069379   2.417476
     8  H    2.177561   1.093354   3.058803   2.495560   2.567426
     9  O    2.870702   2.371080   2.461706   3.403939   3.793468
    10  C    3.815413   2.444778   4.042983   4.273546   4.564982
    11  H    4.605547   3.378910   4.677662   4.969595   5.459278
    12  H    4.023130   2.645171   4.160301   4.709127   4.606024
    13  H    4.135374   2.690512   4.609667   4.461716   4.784910
    14  C    3.046129   2.484346   3.288820   2.875999   4.070351
    15  H    2.698967   2.726586   2.817964   2.283697   3.753713
    16  H    4.016995   3.404391   4.074053   3.881065   5.069865
    17  H    3.404625   2.719580   3.934909   3.089915   4.288587
                    6          7          8          9         10
     6  N    0.000000
     7  H    2.075603   0.000000
     8  H    2.137291   1.776216   0.000000
     9  O    1.359022   2.582990   3.292031   0.000000
    10  C    1.497488   2.551865   2.659109   2.331021   0.000000
    11  H    2.091260   3.538155   3.647945   2.543709   1.086068
    12  H    2.091161   2.280489   3.003840   2.539169   1.085895
    13  H    2.151475   2.909680   2.438473   3.284301   1.092201
    14  C    1.499181   3.374460   2.695863   2.338026   2.435807
    15  H    2.099058   3.694462   3.081140   2.547183   3.366512
    16  H    2.089209   4.149321   3.666862   2.555965   2.619094
    17  H    2.152465   3.665322   2.471292   3.289132   2.707095
                   11         12         13         14         15
    11  H    0.000000
    12  H    1.771626   0.000000
    13  H    1.794955   1.794747   0.000000
    14  C    2.633405   3.363949   2.699237   0.000000
    15  H    3.596091   4.165957   3.698619   1.084374   0.000000
    16  H    2.347481   3.590142   3.003352   1.085920   1.767622
    17  H    3.033846   3.697683   2.510267   1.092024   1.793786
                   16         17
    16  H    0.000000
    17  H    1.793764   0.000000
 Stoichiometry    C4H11NO
 Framework group  C1[X(C4H11NO)]
 Deg. of freedom    45
 Full point group                 C1      NOp   1
 Largest Abelian subgroup         C1      NOp   1
 Largest concise Abelian subgroup C1      NOp   1
                         Standard orientation:                         
 ---------------------------------------------------------------------
 Center     Atomic      Atomic             Coordinates (Angstroms)
 Number     Number       Type             X           Y           Z
 ---------------------------------------------------------------------
      1          6           0        2.106192   -0.019220   -0.010356
      2          6           0        0.823890   -0.668845   -0.485922
      3          1           0        2.061547    0.106500    1.070371
      4          1           0        2.285940    0.948997   -0.479374
      5          1           0        2.948218   -0.666928   -0.259951
      6          7           0       -0.421603    0.001239    0.081462
      7          1           0        0.763147   -1.691341   -0.117702
      8          1           0        0.743962   -0.677917   -1.576313
      9          8           0       -0.371144    0.029447    1.439254
     10          6           0       -1.614059   -0.793748   -0.352720
     11          1           0       -2.489317   -0.311569    0.072686
     12          1           0       -1.507197   -1.786049    0.075166
     13          1           0       -1.685173   -0.843072   -1.441487
     14          6           0       -0.554687    1.397564   -0.447790
     15          1           0        0.285062    1.971776   -0.072332
     16          1           0       -1.474018    1.802245   -0.035132
     17          1           0       -0.579813    1.408598   -1.539469
 ---------------------------------------------------------------------
 Rotational constants (GHZ):           4.9308562           2.7662964           2.6762146
 Standard basis: def2TZVP (5D, 7F)
 There are   282 symmetry adapted cartesian basis functions of A   symmetry.
 There are   252 symmetry adapted basis functions of A   symmetry.
   252 basis functions,   394 primitive gaussians,   282 cartesian basis functions
    25 alpha electrons       25 beta electrons
       nuclear repulsion energy       274.8054035630 Hartrees.
 NAtoms=   17 NActive=   17 NUniq=   17 SFac= 1.00D+00 NAtFMM=   60 NAOKFM=F Big=F
 Integral buffers will be    131072 words long.
 Raffenetti 2 integral format.
 Two-electron integral symmetry is turned on.
 One-electron integrals computed using PRISM.
   1 Symmetry operations used in ECPInt.
 ECPInt:  NShTT=    6105 NPrTT=   17556 LenC2=    6069 LenP2D=   14639.
 LDataN:  DoStor=T MaxTD1= 6 Len=  172
 NBasis=   252 RedAO= T EigKep=  3.09D-04  NBF=   252
 NBsUse=   252 1.00D-06 EigRej= -1.00D+00 NBFU=   252
 Initial guess from the checkpoint file:  "checkpoint.chk"
 B after Tr=    -0.000000    0.000000    0.000000
         Rot=    1.000000    0.000000   -0.000000   -0.000000 Ang=   0.00 deg.
 Requested convergence on RMS density matrix=1.00D-08 within 128 cycles.
 Requested convergence on MAX density matrix=1.00D-06.
 Requested convergence on             energy=1.00D-06.
 No special actions if energy rises.
 SCF Done:  E(RB3LYP) =  -289.055061066     A.U. after    1 cycles
            NFock=  1  Conv=0.10D-08     -V/T= 2.0051
 DoSCS=F DFT=T ScalE2(SS,OS)=  1.000000  1.000000
 Range of M.O.s used for correlation:     1   252
 NBasis=   252 NAE=    25 NBE=    25 NFC=     0 NFV=     0
 NROrb=    252 NOA=    25 NOB=    25 NVA=   227 NVB=   227

 **** Warning!!: The largest alpha MO coefficient is  0.14165110D+02

   1 Symmetry operations used in ECPInt.
 ECPInt:  NShTT=    6105 NPrTT=   17556 LenC2=    6069 LenP2D=   14639.
 LDataN:  DoStor=T MaxTD1= 7 Len=  274
 Symmetrizing basis deriv contribution to polar:
 IMax=3 JMax=2 DiffMx= 0.00D+00
 G2DrvN: will do    18 centers at a time, making    1 passes.
 Calling FoFCou, ICntrl=  3107 FMM=F I1Cent=   0 AccDes= 0.00D+00.
 End of G2Drv F.D. properties file   721 does not exist.
 End of G2Drv F.D. properties file   722 does not exist.
 End of G2Drv F.D. properties file   788 does not exist.
          IDoAtm=11111111111111111
          Differentiating once with respect to electric field.
                with respect to dipole field.
          Differentiating once with respect to nuclear coordinates.
 Keep R1 ints in memory in canonical form, NReq=521444664.
          There are    54 degrees of freedom in the 1st order CPHF.  IDoFFX=6 NUNeed=     3.
     51 vectors produced by pass  0 Test12= 1.05D-14 1.85D-09 XBig12= 4.73D+01 1.24D+00.
 AX will form    51 AO Fock derivatives at one time.
     51 vectors produced by pass  1 Test12= 1.05D-14 1.85D-09 XBig12= 1.11D+01 7.72D-01.
     51 vectors produced by pass  2 Test12= 1.05D-14 1.85D-09 XBig12= 1.12D-01 5.45D-02.
     51 vectors produced by pass  3 Test12= 1.05D-14 1.85D-09 XBig12= 2.61D-04 2.05D-03.
     51 vectors produced by pass  4 Test12= 1.05D-14 1.85D-09 XBig12= 3.97D-07 8.24D-05.
     34 vectors produced by pass  5 Test12= 1.05D-14 1.85D-09 XBig12= 4.70D-10 2.86D-06.
      5 vectors produced by pass  6 Test12= 1.05D-14 1.85D-09 XBig12= 4.71D-13 1.04D-07.
      2 vectors produced by pass  7 Test12= 1.05D-14 1.85D-09 XBig12= 4.73D-16 3.92D-09.
 InvSVY:  IOpt=1 It=  1 EMax= 1.78D-15
 Solved reduced A of dimension   296 with    54 vectors.
 Isotropic polarizability for W=    0.000000       64.27 Bohr**3.
 End of Minotr F.D. properties file   721 does not exist.
 End of Minotr F.D. properties file   722 does not exist.
 End of Minotr F.D. properties file   788 does not exist.
   1 Symmetry operations used in ECPInt.
 ECPInt:  NShTT=    6105 NPrTT=   17556 LenC2=    6069 LenP2D=   14639.
 LDataN:  DoStor=T MaxTD1= 8 Len=  415
 Calling FoFJK, ICntrl=    100127 FMM=F ISym2X=0 I1Cent= 0 IOpClX= 0 NMat=1 NMatS=1 NMatT=0.
 Full mass-weighted force constant matrix:
 Low frequencies ---   -5.3178   -0.7585   -0.0008    0.0004    0.0009    9.0391
 Low frequencies ---  109.3000  208.2081  241.8480
 Diagonal vibrational polarizability:
       11.5497151       3.5276082       3.7879140
 Harmonic frequencies (cm**-1), IR intensities (KM/Mole), Raman scattering
 activities (A**4/AMU), depolarization ratios for plane and unpolarized
 incident light, reduced masses (AMU), force constants (mDyne/A),
 and normal coordinates:
                      1                      2                      3
                      A                      A                      A
 Frequencies --    109.2994               208.2078               241.8476
 Red. masses --      1.8441                 1.0738                 1.1890
 Frc consts  --      0.0130                 0.0274                 0.0410
 IR Inten    --      2.5563                 2.1851                 3.1845
  Atom  AN      X      Y      Z        X      Y      Z        X      Y      Z
     1   6     0.00  -0.11   0.14    -0.02   0.01   0.03    -0.04   0.01   0.06
     2   6     0.00   0.07  -0.10     0.00   0.01  -0.04     0.00   0.00  -0.04
     3   1    -0.01  -0.47   0.18    -0.29   0.39  -0.02    -0.21   0.13   0.04
     4   1     0.03   0.05   0.48     0.23  -0.18  -0.27     0.07  -0.05  -0.03
     5   1    -0.01  -0.04  -0.08    -0.04  -0.19   0.50    -0.02  -0.05   0.28
     6   7     0.00   0.02  -0.03     0.00  -0.00  -0.01     0.00  -0.01  -0.02
     7   1    -0.06  -0.01  -0.34    -0.01   0.00  -0.06    -0.00  -0.01  -0.07
     8   1     0.06   0.33  -0.10     0.02   0.04  -0.04     0.03   0.04  -0.04
     9   8     0.07   0.05  -0.03     0.03  -0.03  -0.01     0.06  -0.01  -0.02
    10   6     0.01  -0.04   0.06    -0.00  -0.00   0.01    -0.03   0.01   0.05
    11   1     0.00  -0.02   0.01    -0.02   0.06  -0.09     0.06  -0.19   0.46
    12   1     0.04   0.01   0.15    -0.05   0.04   0.11     0.16  -0.12  -0.32
    13   1     0.01  -0.14   0.06     0.05  -0.11   0.01    -0.33   0.36   0.05
    14   6    -0.09   0.01  -0.04    -0.01   0.01   0.02     0.00  -0.01  -0.04
    15   1    -0.04   0.03  -0.21     0.14  -0.06  -0.22    -0.12   0.04   0.16
    16   1    -0.03   0.01   0.10     0.13   0.08   0.27    -0.12  -0.07  -0.25
    17   1    -0.28  -0.03  -0.04    -0.31   0.00   0.02     0.25  -0.00  -0.04
                      4                      5                      6
                      A                      A                      A
 Frequencies --    280.3454               281.0266               367.5459
 Red. masses --      1.3112                 1.6763                 2.6659
 Frc consts  --      0.0607                 0.0780                 0.2122
 IR Inten    --      1.8912                 0.9837                10.2625
  Atom  AN      X      Y      Z        X      Y      Z        X      Y      Z
     1   6    -0.07   0.05   0.03    -0.07   0.12   0.05    -0.02  -0.02   0.05
     2   6    -0.01   0.00  -0.06     0.01  -0.04   0.03     0.00  -0.11   0.10
     3   1    -0.18   0.05   0.02    -0.01  -0.08   0.08    -0.00   0.02   0.04
     4   1    -0.09   0.07   0.05    -0.29   0.24   0.22    -0.12  -0.02  -0.00
     5   1    -0.01   0.11   0.10     0.04   0.34  -0.14     0.02   0.03   0.04
     6   7     0.00  -0.02  -0.01     0.01  -0.04  -0.02     0.03   0.01  -0.03
     7   1     0.01  -0.02  -0.13     0.07  -0.02   0.08    -0.05  -0.01   0.35
     8   1     0.00   0.09  -0.06     0.05  -0.09   0.02     0.07  -0.36   0.10
     9   8     0.04  -0.04  -0.01     0.05  -0.07  -0.02     0.21  -0.01  -0.04
    10   6    -0.04   0.01   0.06    -0.08   0.07   0.02    -0.02   0.10  -0.10
    11   1    -0.05   0.25  -0.25     0.00   0.12   0.13    -0.03   0.22  -0.26
    12   1    -0.22   0.15   0.42    -0.14   0.03  -0.07    -0.20   0.10  -0.06
    13   1     0.13  -0.34   0.06    -0.18   0.17   0.02     0.13   0.08  -0.11
    14   6     0.07  -0.01  -0.01     0.08  -0.05  -0.06    -0.20   0.02   0.02
    15   1    -0.08   0.01   0.29     0.28  -0.14  -0.38    -0.36   0.20   0.11
    16   1    -0.08  -0.06  -0.30     0.27   0.11   0.20    -0.32  -0.23  -0.01
    17   1     0.42   0.02  -0.01    -0.26  -0.14  -0.05    -0.15   0.07   0.02
                      7                      8                      9
                      A                      A                      A
 Frequencies --    395.3183               438.9565               483.9331
 Red. masses --      2.7556                 2.4954                 3.3325
 Frc consts  --      0.2537                 0.2833                 0.4598
 IR Inten    --      5.3910                 9.0422                11.7134
  Atom  AN      X      Y      Z        X      Y      Z        X      Y      Z
     1   6     0.20  -0.00  -0.01    -0.09  -0.01  -0.03     0.07   0.03  -0.01
     2   6     0.09   0.10   0.02    -0.09   0.05  -0.03     0.12  -0.05  -0.11
     3   1     0.29   0.07  -0.02    -0.14   0.01  -0.03    -0.06   0.04  -0.01
     4   1     0.35  -0.07  -0.09    -0.05  -0.02  -0.04     0.02   0.05   0.01
     5   1     0.08  -0.17  -0.00    -0.10  -0.03   0.02     0.15   0.11   0.09
     6   7     0.00  -0.00   0.04     0.00   0.00   0.16     0.02  -0.14   0.03
     7   1     0.10   0.07  -0.06    -0.06  -0.02  -0.23     0.20  -0.14  -0.34
     8   1     0.09   0.17   0.02    -0.21   0.27  -0.02     0.07   0.19  -0.11
     9   8    -0.07  -0.15   0.04     0.07   0.00   0.16    -0.04   0.23   0.02
    10   6    -0.10   0.13   0.06     0.09   0.04  -0.12    -0.12   0.05  -0.07
    11   1     0.00   0.33   0.05    -0.04  -0.04  -0.28    -0.03   0.23  -0.07
    12   1    -0.28   0.14   0.12    -0.00  -0.04  -0.29    -0.39  -0.03  -0.18
    13   1    -0.14   0.09   0.06     0.37   0.23  -0.14    -0.07   0.20  -0.07
    14   6    -0.10  -0.06  -0.12     0.01  -0.09  -0.09    -0.02  -0.19   0.14
    15   1    -0.19   0.11  -0.18     0.01   0.01  -0.25    -0.06  -0.19   0.22
    16   1    -0.19  -0.09  -0.28    -0.01   0.02  -0.25    -0.02  -0.28   0.21
    17   1    -0.03  -0.26  -0.12     0.05  -0.40  -0.09    -0.03  -0.04   0.14
                     10                     11                     12
                      A                      A                      A
 Frequencies --    540.6736               708.7047               798.8792
 Red. masses --      3.2013                 3.2802                 1.2489
 Frc consts  --      0.5514                 0.9707                 0.4696
 IR Inten    --      7.1822                 0.6017                 1.2721
  Atom  AN      X      Y      Z        X      Y      Z        X      Y      Z
     1   6    -0.10  -0.03  -0.03     0.09  -0.01  -0.01    -0.02  -0.02   0.03
     2   6     0.07  -0.16  -0.11     0.16  -0.17  -0.11    -0.02  -0.04   0.09
     3   1    -0.35  -0.04  -0.04    -0.20  -0.01  -0.02     0.32   0.29   0.00
     4   1    -0.31   0.04   0.03    -0.15   0.07   0.07    -0.30  -0.12  -0.31
     5   1     0.14   0.22   0.12     0.36   0.28   0.18     0.01   0.08  -0.13
     6   7     0.14   0.02   0.00    -0.08   0.04   0.13     0.04  -0.04   0.00
     7   1     0.00  -0.16  -0.11     0.10  -0.16  -0.09    -0.12  -0.22  -0.44
     8   1    -0.02  -0.12  -0.10     0.07  -0.13  -0.10     0.13   0.49   0.07
     9   8    -0.17  -0.03   0.03     0.02  -0.01   0.10     0.00   0.00  -0.02
    10   6     0.20   0.15   0.10    -0.14  -0.10  -0.04    -0.01  -0.02  -0.01
    11   1     0.26   0.19   0.16    -0.27  -0.23  -0.14     0.04   0.03   0.03
    12   1     0.16   0.15   0.12    -0.08  -0.13  -0.10    -0.06  -0.03  -0.01
    13   1     0.12   0.12   0.10     0.02  -0.04  -0.05    -0.05  -0.01  -0.00
    14   6    -0.07   0.02  -0.01    -0.02   0.23  -0.07     0.00   0.06  -0.03
    15   1    -0.19   0.25  -0.11     0.03   0.20  -0.13    -0.04   0.10   0.00
    16   1    -0.14  -0.21   0.06    -0.01   0.36  -0.15    -0.01  -0.06   0.04
    17   1    -0.19  -0.02  -0.01     0.01   0.09  -0.07    -0.05   0.15  -0.03
                     13                     14                     15
                      A                      A                      A
 Frequencies --    887.4895               928.1043               945.9991
 Red. masses --      2.3356                 1.9764                 4.4735
 Frc consts  --      1.0839                 1.0030                 2.3587
 IR Inten    --      3.1143                 1.4348                33.6271
  Atom  AN      X      Y      Z        X      Y      Z        X      Y      Z
     1   6    -0.06   0.01  -0.04     0.00  -0.03   0.00     0.01   0.01   0.05
     2   6    -0.03   0.07   0.02     0.00   0.01  -0.00     0.02  -0.03  -0.06
     3   1    -0.20  -0.19  -0.02    -0.04   0.08  -0.01     0.24   0.13   0.03
     4   1     0.22   0.05   0.16    -0.21  -0.02  -0.07    -0.06  -0.08  -0.16
     5   1    -0.18  -0.18   0.03     0.14   0.14   0.03    -0.06  -0.01  -0.15
     6   7     0.19  -0.10  -0.04     0.09   0.17  -0.04    -0.12   0.00  -0.31
     7   1     0.23   0.08   0.12    -0.22   0.03  -0.00    -0.12  -0.02  -0.05
     8   1    -0.22  -0.08   0.04     0.05   0.03  -0.01     0.46  -0.10  -0.11
     9   8    -0.02   0.02   0.12    -0.00  -0.01   0.04     0.03   0.00   0.35
    10   6    -0.07  -0.10  -0.06    -0.11  -0.03  -0.10     0.05   0.06  -0.02
    11   1     0.17   0.20   0.09    -0.07  -0.14   0.10     0.02  -0.04   0.02
    12   1    -0.30  -0.10  -0.01     0.26   0.13   0.17     0.15   0.10   0.05
    13   1    -0.29  -0.10  -0.05    -0.38  -0.34  -0.07    -0.09  -0.09  -0.01
    14   6     0.03   0.11  -0.07     0.05  -0.09   0.09    -0.04  -0.04  -0.06
    15   1    -0.10   0.29  -0.03    -0.08   0.29  -0.18     0.06  -0.35   0.17
    16   1    -0.03  -0.25   0.12    -0.06  -0.19  -0.06     0.07   0.11   0.05
    17   1    -0.11   0.29  -0.07    -0.04  -0.42   0.09     0.04   0.36  -0.06
                     16                     17                     18
                      A                      A                      A
 Frequencies --   1006.3463              1074.8275              1114.1131
 Red. masses --      1.8240                 1.4143                 1.6889
 Frc consts  --      1.0884                 0.9627                 1.2351
 IR Inten    --      5.2806                 1.0392                 1.2270
  Atom  AN      X      Y      Z        X      Y      Z        X      Y      Z
     1   6     0.19   0.01   0.00    -0.02  -0.09  -0.04    -0.03  -0.08  -0.09
     2   6    -0.19  -0.02   0.02     0.07   0.09   0.04     0.10   0.07   0.11
     3   1    -0.17   0.08  -0.01    -0.24   0.02  -0.06    -0.39  -0.11  -0.09
     4   1    -0.06   0.14   0.17    -0.33  -0.04  -0.05    -0.21   0.02   0.06
     5   1     0.49   0.32   0.26     0.19   0.16   0.07     0.14   0.07   0.14
     6   7     0.00  -0.02  -0.03     0.00   0.01  -0.00    -0.02   0.04  -0.01
     7   1    -0.28  -0.05  -0.07    -0.12   0.12   0.09     0.15   0.03  -0.01
     8   1    -0.51   0.04   0.04     0.06   0.05   0.05     0.00   0.23   0.12
     9   8     0.01  -0.00   0.01     0.00   0.00   0.00     0.01  -0.02   0.00
    10   6     0.03   0.00  -0.01     0.05  -0.06  -0.03    -0.06   0.05   0.03
    11   1     0.07   0.04   0.03     0.32   0.31   0.11    -0.28  -0.23  -0.11
    12   1    -0.00   0.01   0.01    -0.32  -0.08   0.02     0.22   0.05  -0.03
    13   1    -0.03  -0.01  -0.00    -0.21   0.05  -0.02     0.19  -0.00   0.02
    14   6     0.00  -0.01  -0.03    -0.07  -0.00   0.02     0.03  -0.06  -0.08
    15   1    -0.00  -0.08   0.08     0.13  -0.29   0.02    -0.07  -0.09   0.20
    16   1     0.02  -0.08   0.08     0.05   0.40  -0.11     0.07  -0.28   0.23
    17   1    -0.02   0.17  -0.03     0.16  -0.08   0.01    -0.09   0.40  -0.07
                     19                     20                     21
                      A                      A                      A
 Frequencies --   1133.7262              1206.2341              1232.7645
 Red. masses --      1.4584                 1.8441                 2.1253
 Frc consts  --      1.1044                 1.5809                 1.9030
 IR Inten    --      1.8041                 6.5586                 0.6375
  Atom  AN      X      Y      Z        X      Y      Z        X      Y      Z
     1   6     0.01  -0.04   0.05    -0.03   0.01   0.07    -0.01   0.10  -0.06
     2   6    -0.03   0.07  -0.08     0.01  -0.01  -0.09     0.01  -0.13   0.07
     3   1     0.13   0.18   0.02     0.26   0.09   0.06    -0.07  -0.24  -0.01
     4   1    -0.22  -0.08  -0.14     0.01  -0.08  -0.12     0.37   0.13   0.17
     5   1     0.10   0.13  -0.08    -0.08   0.00  -0.11    -0.17  -0.17   0.08
     6   7     0.06   0.04  -0.02     0.06   0.08   0.15     0.09   0.17  -0.05
     7   1    -0.28   0.20   0.21    -0.09   0.07   0.12    -0.26  -0.21  -0.22
     8   1     0.19  -0.23  -0.10    -0.15  -0.16  -0.08     0.04   0.25   0.06
     9   8    -0.02  -0.01   0.00    -0.00  -0.01  -0.01    -0.01  -0.02   0.00
    10   6    -0.04  -0.07   0.09    -0.01   0.00  -0.07    -0.03  -0.08   0.05
    11   1    -0.13   0.03  -0.21     0.09   0.01   0.12    -0.03   0.10  -0.16
    12   1    -0.29  -0.24  -0.25     0.09   0.10   0.15    -0.26  -0.19  -0.16
    13   1     0.35   0.30   0.05    -0.24  -0.15  -0.05     0.14   0.23   0.02
    14   6     0.04  -0.02  -0.01    -0.05  -0.07  -0.11    -0.06  -0.06   0.00
    15   1    -0.06   0.11   0.01     0.00  -0.40   0.30     0.05  -0.24   0.06
    16   1     0.01  -0.19   0.08     0.14   0.01   0.25     0.07   0.19   0.03
    17   1    -0.05   0.06  -0.01     0.06   0.49  -0.09     0.13   0.07   0.00
                     22                     23                     24
                      A                      A                      A
 Frequencies --   1259.1815              1328.9252              1383.8538
 Red. masses --      1.9274                 1.2521                 1.2374
 Frc consts  --      1.8005                 1.3028                 1.3962
 IR Inten    --      1.0279                 3.3087                 1.2794
  Atom  AN      X      Y      Z        X      Y      Z        X      Y      Z
     1   6     0.00  -0.02   0.02     0.01   0.02  -0.07    -0.05  -0.06  -0.03
     2   6    -0.03   0.03   0.00    -0.06   0.01   0.01    -0.09   0.00   0.00
     3   1     0.00   0.08   0.01    -0.09  -0.07  -0.06     0.33   0.17  -0.04
     4   1    -0.09  -0.03  -0.04     0.12   0.12   0.18     0.13   0.03   0.21
     5   1     0.01   0.03  -0.05     0.05  -0.00   0.15     0.24   0.21   0.24
     6   7     0.18  -0.08  -0.04     0.03  -0.06   0.06     0.01   0.06  -0.00
     7   1     0.12   0.02   0.01    -0.45   0.03   0.01     0.68  -0.07  -0.08
     8   1    -0.13  -0.06   0.01     0.78  -0.06  -0.06     0.27  -0.07  -0.03
     9   8    -0.02   0.01   0.00    -0.00   0.01  -0.01    -0.00  -0.01   0.00
    10   6    -0.10   0.07   0.03    -0.01   0.03  -0.03    -0.02  -0.03  -0.00
    11   1    -0.34  -0.28  -0.09     0.02  -0.07   0.13     0.08   0.14   0.00
    12   1     0.35   0.06  -0.10     0.08   0.07   0.06     0.08   0.01   0.05
    13   1     0.26  -0.13   0.01     0.03  -0.11  -0.02     0.06   0.14  -0.01
    14   6    -0.12   0.03   0.03    -0.01   0.02  -0.02    -0.01  -0.00  -0.00
    15   1     0.18  -0.33  -0.08     0.01  -0.04   0.05     0.02  -0.07   0.02
    16   1     0.02   0.45  -0.11     0.01  -0.03   0.06     0.01  -0.03   0.06
    17   1     0.28  -0.11   0.01     0.02  -0.00  -0.02     0.05  -0.04  -0.00
                     25                     26                     27
                      A                      A                      A
 Frequencies --   1404.3869              1415.8953              1446.4588
 Red. masses --      1.2725                 1.1765                 1.2089
 Frc consts  --      1.4787                 1.3896                 1.4902
 IR Inten    --     11.9807                 3.1642                 3.2751
  Atom  AN      X      Y      Z        X      Y      Z        X      Y      Z
     1   6    -0.11  -0.02  -0.04    -0.03  -0.00  -0.01    -0.02   0.01   0.01
     2   6     0.07   0.01  -0.00     0.03   0.00  -0.00     0.05   0.01   0.01
[...]

 Dipole polarizability, Alpha (dipole orientation).
 (esu units = cm**3 , SI units = C**2 m**2 J**-1)
 Alpha(0;0):
               (au)            (10**-24 esu)      (10**-40 SI)
   iso        0.642651D+02      0.952311D+01      0.105959D+02
   aniso      0.795954D+01      0.117948D+01      0.131235D+01
   xx         0.694574D+02      0.102925D+02      0.114520D+02
   yx        -0.920112D-01     -0.136347D-01     -0.151706D-01
   yy         0.613852D+02      0.909635D+01      0.101211D+02
   zx        -0.897668D+00     -0.133021D+00     -0.148005D+00
   zy         0.623533D-01      0.923980D-02      0.102807D-01
   zz         0.619528D+02      0.918046D+01      0.102146D+02

 ----------------------------------------------------------------------
 1\1\GINC-BHC0028\Freq\RB3LYP\def2TZVP\C4H11N1O1\DHANAWAY\10-Jun-2022\0
 \\#N Geom=AllCheck Guess=TCheck SCRF=Check GenChk RB3LYP/def2TZVP Freq
 \\int_initalOpt\\0,1\C,2.106192,-0.01922,-0.010356\C,0.82389,-0.668845
 ,-0.485922\H,2.061547,0.1065,1.070371\H,2.28594,0.948997,-0.479374\H,2
 .948218,-0.666928,-0.259951\N,-0.421603,0.001239,0.081462\H,0.763147,-
 1.691341,-0.117702\H,0.743962,-0.677917,-1.576313\O,-0.371144,0.029447
 ,1.439254\C,-1.614059,-0.793748,-0.35272\H,-2.489317,-0.311569,0.07268
 6\H,-1.507197,-1.786049,0.075166\H,-1.685173,-0.843072,-1.441487\C,-0.
 554687,1.397564,-0.44779\H,0.285062,1.971776,-0.072332\H,-1.474018,1.8
 02245,-0.035132\H,-0.579813,1.408598,-1.539469\\Version=ES64L-G16RevA.
 03\HF=-289.0550611\RMSD=9.975e-10\RMSF=6.047e-06\ZeroPoint=0.1530979\T
 hermal=0.1605107\Dipole=-0.016987,-0.0399764,-1.7630043\DipoleDeriv=-0
 .0696661,-0.0237311,-0.0401146,0.0127017,0.0981184,-0.0463584,0.007414
 4,-0.0487506,-0.0104419,0.35292,-0.0590791,0.0353603,-0.0744275,0.1267
 702,-0.0068446,-0.0207711,0.0160574,0.1754096,0.1250512,-0.0114521,0.0
 16682,-0.0336933,0.054231,-0.0073168,-0.0602891,-0.0108486,-0.0104518,
 0.0420894,-0.0115782,-0.0176272,-0.0665234,-0.1057678,0.0697573,-0.000
 2446,0.0825078,0.0205197,-0.0839999,0.0665051,0.0303868,0.0946585,-0.0
 072223,-0.0315763,0.0360524,-0.0317603,0.082742,-0.00444,0.0121306,0.0
 09095,0.0089385,0.0180452,-0.0197172,0.0250905,-0.0131249,0.335802,0.0
 05743,-0.0374228,0.012364,-0.0108326,-0.086148,0.0131335,0.0099456,0.0
 582268,0.0470582,-0.0360902,0.0115527,-0.0320995,0.0175667,0.0499295,0
 .0013492,-0.004588,-0.0450723,-0.1664464,-0.6292668,0.0051323,0.031553
 3,-0.0020617,-0.5546174,0.0040552,-0.0036893,-0.0069943,-0.7552851,0.1
 564533,0.0514544,-0.0255836,0.07663,0.122501,-0.0085382,0.031477,0.022
 9395,0.1946009,-0.0318393,0.0164617,0.004794,0.0759833,0.0319677,-0.03
 50951,0.0510423,-0.037398,0.055985,0.0604895,0.045776,-0.0293159,-0.01
 36039,-0.0471547,0.0191446,-0.0170558,0.0576361,0.0551995,0.013979,-0.
 0401783,0.0032388,-0.0453998,0.0481102,-0.0004433,-0.0635186,-0.040782
 3,-0.1545981,0.0625432,-0.018874,-0.001051,-0.0168207,0.177418,0.02822
 08,0.012676,-0.0418357,0.1788666,-0.0011775,-0.086276,-0.0246194,-0.04
 50247,0.0297541,0.0131561,-0.0493716,-0.0100952,0.0515477,-0.0406803,0
 .0719921,0.0271685,0.0149277,0.0521268,0.0135449,0.0601812,-0.0140503,
 0.0538512,0.0778913,0.0075868,-0.0002315,0.0069812,-0.0080622,-0.00647
 16,-0.0143513,0.0633449,-0.1543592\Polar=69.4739363,0.1121729,61.38830
 79,0.8228803,0.0739783,61.9331772\PG=C01 [X(C4H11N1O1)]\NImag=0\\0.499
 54809,-0.02914652,0.55805063,-0.03457852,-0.01335095,0.56296721,-0.152
 94002,-0.05010948,-0.03297286,0.41593484,-0.04685656,-0.11055579,-0.01
 875933,0.05355308,0.56371730,-0.03253241,-0.02038969,-0.09679705,0.051
 52977,-0.05827387,0.58240413,-0.04436283,0.00100382,0.01241937,0.00045
 365,-0.00397941,-0.03191627,0.04763928,-0.00006842,-0.05352645,-0.0285
 9524,0.00137442,-0.00214499,-0.01563060,0.00114179,0.05413810,0.009000
 45,-0.02876688,-0.31243014,-0.00461273,-0.00172242,-0.01138352,-0.0084
 8469,0.03407338,0.33979285,-0.05362284,-0.03418294,0.01635281,-0.00385
 630,-0.02726016,0.01365030,-0.00108170,-0.00098329,0.00057175,0.058157
 01,-0.03650107,-0.25137350,0.10072994,-0.00146616,-0.01312608,0.005313
 68,0.00104145,0.00463042,-0.00133366,0.04031370,0.27582074,0.01723673,
 0.10272647,-0.09992144,-0.00084876,-0.01287483,0.00475977,0.00327023,0
 .02964957,-0.01060563,-0.01692147,-0.11149341,0.10151068,-0.20071475,0
 .12006260,0.04597885,-0.02148558,0.01794576,0.00834077,-0.00026072,-0.
 00060408,0.00057856,0.00454318,-0.00275185,-0.00193985,0.22082432,0.12
 272076,-0.14094768,-0.03667201,-0.01182730,0.00817436,0.00453661,0.001
 62113,-0.00272792,-0.00035964,0.02195556,-0.01704785,-0.00712854,-0.13
 119364,0.15187377,0.04710790,-0.03622179,-0.05860100,-0.01012170,0.007
 35598,0.00183350,0.02481164,-0.01951408,-0.00401688,-0.01215459,0.0086
 2035,0.00276708,-0.05053079,0.04053092,0.05948048,-0.03688056,0.015970
 23,0.00908560,-0.10293487,0.01464184,-0.00300655,0.00097093,0.00027912
 ,0.00159223,0.00122009,0.00023570,-0.00000098,-0.00376614,-0.00431812,
 -0.00150761,0.49009369,-0.00703151,0.00951734,0.00769345,0.00705383,-0
 .09754293,0.00047121,0.00071735,0.00079321,-0.00083725,-0.00092728,-0.
 00016898,0.00084639,-0.00353113,-0.00127101,-0.00135361,0.01067470,0.5
 1539165,-0.00260733,0.00845154,0.00771414,-0.01247083,0.00206775,-0.06
 262883,-0.00215572,0.00018307,-0.00239642,0.00041801,-0.00030519,-0.00
 013220,-0.00305865,-0.00178222,-0.00335457,0.00700108,-0.00293514,0.40
 423608,-0.00424960,-0.02785214,0.01000597,-0.04577869,-0.02124135,0.00
 769330,0.00092072,0.00052301,-0.00020480,-0.00437269,-0.00250662,-0.00
 292205,0.00107810,0.00028638,0.00057774,-0.00766700,0.03232051,-0.0073
 4628,0.06340258,-0.00273953,-0.01266890,0.00469243,-0.01350955,-0.2809
 9256,0.08496463,0.00024004,0.00021360,0.00003115,-0.00215976,0.0004178
 6,-0.00107807,-0.00009523,0.00107117,0.00004239,0.00491897,-0.02202290
 ,0.00646489,0.01427333,0.30632632,-0.00088718,-0.01109497,0.00451053,0
 .00314901,0.09229235,-0.08418883,0.00050136,-0.00022104,0.00053639,-0.
 00211003,-0.00143405,0.00024824,0.00077780,0.00048820,0.00058202,0.003
 44647,-0.01438872,0.00246364,-0.00643878,-0.09364881,0.08370752,-0.000
 86994,-0.00102522,-0.02998836,-0.05214701,0.00253262,-0.02463073,-0.00
 551051,-0.00265927,-0.00095495,0.00123608,0.00010089,0.00105850,0.0005
 0824,0.00061092,0.00058506,0.00162418,-0.00176902,0.02632216,0.0004962
 3,-0.00031955,0.00100871,0.05876215,-0.00161178,0.00017029,-0.01453369
 ,0.00092581,-0.05281191,0.00644646,-0.00233763,-0.00029523,-0.00157128
 ,0.00100130,0.00060780,-0.00021375,0.00010896,0.00028499,0.00026810,-0
 .00093612,-0.00132217,-0.01596844,0.00174519,0.00272750,0.02909471,-0.
 00070259,0.05051829,-0.00069084,0.00050105,-0.00754995,-0.01792942,0.0
 0179076,-0.29906910,-0.00129693,-0.00049541,0.00057913,0.00009130,-0.0
 0037676,0.00083388,-0.00061552,-0.00000188,-0.00004809,-0.00295943,0.0
 0196674,-0.01368261,-0.00113410,-0.00007430,-0.00932372,0.02107472,-0.
 00080686,0.32760443,-0.00211749,-0.00055107,-0.00006975,0.00488513,0.0
 0018757,0.02631669,0.00077899,0.00095893,0.00317581,-0.00024168,-0.000
 31335,0.00096728,0.00027373,0.00074907,0.00218044,-0.08585793,-0.00056
 621,-0.00702998,0.00098416,-0.00154296,-0.00027674,-0.00389339,0.00222
 703,0.00450446,0.07372764,-0.00101405,0.00120995,0.00008327,-0.0015671
 0,0.00343447,-0.01621423,0.00027803,-0.00096030,0.00032022,0.00060599,
 0.00026743,-0.00065708,-0.00001936,0.00025869,0.00033463,0.00066956,-0
 .08787447,-0.00296065,-0.00234043,0.00310029,0.00028292,0.00324841,0.0
 0034380,-0.00309103,0.00081811,0.06691872,-0.00333982,0.00023685,-0.00
 011835,0.01819660,-0.00975867,-0.04822649,0.00170450,0.00033644,0.0004
 6559,0.00010718,0.00007389,0.00012753,-0.00045370,-0.00000549,0.000981
 52,-0.00774310,-0.00210364,-0.18974822,-0.00268500,0.00060397,0.001527
 58,0.00578519,-0.00312672,-0.00127215,0.01309856,0.00600739,0.33056090
 ,-0.00150218,0.00245883,0.00205826,-0.03908982,-0.01228868,-0.00339935
 ,0.00025903,0.00006897,-0.00026545,-0.00013272,-0.00010916,0.00019830,
 -0.00076904,-0.00045849,-0.00051233,-0.12816381,-0.02843094,0.00568424
 ,0.00066365,-0.00198008,-0.00061255,0.00038639,-0.00072140,-0.00110645
 ,0.00134131,-0.00138316,-0.02014200,0.49121753,0.00319774,-0.00239019,
 -0.00139579,0.00789733,0.00886887,0.00539949,-0.00016657,-0.00000437,0
 .00003532,0.00013981,0.00004774,-0.00015803,0.00115872,0.00063393,0.00
 032570,-0.02679420,-0.10647412,0.00403901,0.00273619,0.00003273,-0.000
 24854,0.00025312,-0.00009155,-0.00007315,-0.00142040,0.00304957,-0.013
 60402,-0.08872859,0.56587090,0.00253837,-0.00159518,-0.00114944,0.0067
 5230,0.00660918,0.00873579,0.00054722,-0.00023225,-0.00061901,-0.00005
 946,0.00019045,0.00008598,0.00089398,0.00035655,0.00030825,0.00107603,
 0.00025996,-0.06463809,-0.00029482,0.00027035,-0.00014153,0.00048969,0
 .00044191,-0.00064544,-0.03287195,-0.02133732,-0.04711540,-0.05060698,
 -0.03388712,0.58804408,-0.00072663,0.00123370,0.00091661,-0.00250603,-
 0.00445516,-0.00308999,-0.00005129,0.00000937,-0.00000163,-0.00010879,
 -0.00009407,0.00001756,-0.00047409,-0.00030851,-0.00019439,-0.03191540
 ,0.01041418,0.01059006,0.00022203,-0.00010787,-0.00008198,0.00028080,-
 0.00008427,0.00013689,0.00441437,0.00025981,0.00209257,-0.21931498,0.0
 9774505,0.08424762,0.24486827,-0.00095747,0.00116476,0.00018867,-0.001
 54335,-0.00225633,-0.00114367,0.00005009,0.00001935,0.00003889,0.00017
 514,0.00003771,0.00007913,-0.00036209,-0.00016017,-0.00011494,-0.02065
 775,0.00524354,0.00576204,-0.00023425,0.00046306,-0.00026632,-0.000036
 52,-0.00018170,0.,0.00085757,-0.00001821,0.00277610,0.10761642,-0.1077
 9416,-0.05166047,-0.10533850,0.11341574,-0.00053377,0.00000235,0.00064
 595,-0.00064036,-0.00049877,-0.00109499,0.00011369,0.00005535,0.000086
 12,-0.00003630,-0.00002801,-0.00002162,-0.00013836,-0.00003561,-0.0000
 0329,-0.00962213,0.00310061,0.00200943,-0.00002465,-0.00018301,-0.0000
 5684,-0.00024615,-0.00001885,0.00038383,-0.00027829,0.00029875,0.00111
 121,0.09184377,-0.05088118,-0.09194219,-0.09413249,0.05535143,0.092897
 02,0.00010023,0.00020664,-0.00013441,0.00129367,-0.00228289,0.00017564
 ,-0.00001012,-0.00002375,0.00003978,0.00014342,0.00002829,0.00000411,-
 0.00001251,0.00001009,0.00003015,-0.00354383,-0.03164955,0.00939744,-0
 .00092807,0.00012422,-0.00001912,-0.00008762,0.00012007,0.00004216,0.0
 0106334,0.00221119,0.00344053,-0.05125016,0.03715885,-0.01528171,-0.00
 077585,0.02285379,-0.01096033,0.05799132,-0.00022076,0.00035042,-0.000
 21321,0.00220647,-0.00013814,-0.00012779,-0.00003319,-0.00003156,0.000
 03205,0.00019289,0.00013718,0.00001521,-0.00004883,-0.00000354,-0.0000
 5106,-0.00137613,-0.02275071,0.00769211,-0.00023190,0.00111866,-0.0000
 1463,-0.00007291,0.00003116,-0.00006603,0.00169363,0.00342310,0.000903
 12,0.02722245,-0.27545343,0.09818479,0.00139276,-0.01090302,0.00570634
 ,-0.02708099,0.30011935,0.00010280,-0.00028948,0.00002911,0.00026231,0
 .00015322,-0.00050092,-0.00007591,-0.00004015,0.00000695,-0.00007236,-
 0.00007733,-0.00004712,0.00004063,0.00002876,0.00000629,-0.00070246,-0
 .00984427,0.00203998,0.00033153,-0.00015523,0.00052520,0.00004678,0.00
 015598,-0.00004413,0.00021477,-0.00036950,0.00113029,-0.01148450,0.105
 01223,-0.09273510,0.00102375,-0.01224982,0.00559386,0.01475094,-0.1088
 2393,0.09358146,0.00018028,0.00011824,0.00045845,0.00043131,-0.0002231
 6,-0.00041362,0.00043993,-0.00001517,-0.00019183,0.00003265,0.00001004
 ,0.00000483,0.00000008,-0.00000087,-0.00001027,0.00083819,0.00222341,-
 0.02500040,-0.00009583,0.00015191,-0.00002034,-0.00113425,-0.00003970,
 0.00034830,-0.00345574,-0.00368854,-0.00599117,-0.05440743,-0.00216718
 ,-0.00666406,0.00477651,-0.00061186,0.02452392,-0.00016501,0.00013767,
 -0.00304420,0.05215313,0.00005070,-0.00013402,0.00003448,0.00069929,0.
 00001904,0.00016230,0.00017770,-0.00001310,-0.00006772,-0.00004410,-0.
 00002934,0.00002201,0.00002410,0.00000707,0.00004201,0.00218106,-0.001
 02160,-0.01682361,-0.00009352,-0.00001558,0.00021900,-0.00011352,0.000
 42927,0.00014968,-0.00381185,-0.00004289,-0.00400874,-0.00208641,-0.05
 290133,-0.00467812,-0.00193019,0.00000846,-0.01355440,0.00140503,0.005
 06349,0.02781870,0.00379247,0.04907538,-0.00053378,0.00006207,0.000350
 73,0.00117704,0.00000471,-0.00063853,0.00035078,0.00008117,0.00015285,
 0.00000830,-0.00001379,0.00002071,-0.00007121,-0.00002617,0.00006810,0
 .00282008,0.00200845,-0.01001898,-0.00005264,-0.00005607,-0.00014011,-
 0.00006278,0.00005257,0.00126082,-0.00494507,-0.00356655,-0.00086449,-
 0.01347989,-0.00918572,-0.30442413,-0.00129818,0.00094663,-0.00958960,
 0.00037559,-0.00162523,-0.00965335,0.01538378,0.01070334,0.33255394,-0
 .00073342,0.00074276,-0.00000784,-0.00339976,0.02980242,-0.00783971,-0
 .00026126,0.00013988,-0.00025069,-0.00071225,0.00060929,0.00014540,0.0
 0028870,-0.00016922,-0.00025433,-0.09064261,0.00606244,0.00094033,-0.0
 0472994,0.00279174,0.00140234,0.00047895,-0.00013082,-0.00062783,0.004
 07694,0.00163738,-0.00396101,0.00002568,-0.02938239,0.00871697,0.00026
 162,-0.00149085,0.00020014,-0.00423851,-0.00388554,-0.00096769,0.00035
 510,0.00003225,0.00041976,0.62184069,0.00052029,0.00178484,-0.00004272
 ,0.01069216,-0.02110905,0.00097748,0.00021716,0.00008129,-0.00011838,-
 0.00002592,-0.00091859,0.00073837,-0.00084874,-0.00093430,-0.00021391,
 0.00060100,-0.14504659,-0.00264631,0.00103523,0.00079671,-0.00032490,-
 0.00060730,0.00019440,0.00086245,0.00061153,0.00518096,0.02083279,-0.0
 0684290,-0.03009131,0.00429561,0.00232629,0.00139867,0.00036049,-0.001
 31411,-0.00053777,-0.00078347,0.00082489,0.00025980,0.00085483,0.02291
 841,0.44213490,0.00079060,-0.00015114,-0.00056448,-0.00223339,-0.00811
 134,0.00892126,0.00011285,0.00016874,-0.00020816,-0.00005659,-0.000238
 13,0.00061752,0.00022414,-0.00022268,0.00019426,0.00096824,0.00365960,
 -0.06507369,0.00278430,-0.00220658,-0.00118548,-0.00026011,-0.00044388
 ,-0.00060870,-0.00472387,0.03492679,-0.04985550,0.00302526,-0.00575770
 ,0.00835133,0.00006531,0.00026799,-0.00041204,-0.00204238,-0.00232818,
 -0.00085291,0.00020853,-0.00024872,-0.00050917,-0.00707767,0.07219459,
 0.58009427,-0.00110095,0.00100548,0.00014745,0.00011452,-0.00017910,0.
 00051697,-0.00000959,0.00000196,-0.00008497,-0.00126372,0.00133234,0.0
 0001759,-0.00000573,0.00016173,-0.00001767,0.00334400,0.00272883,0.000
 14751,0.00000927,-0.00013303,-0.00007951,-0.00008433,0.00000900,0.0000
 3750,0.00054109,0.00116393,0.00143573,0.00034338,0.00012641,0.00022204
 ,0.00041448,0.00011639,-0.00024906,0.00036828,0.00006429,-0.00019015,-
 0.00006012,0.00016664,-0.00004663,-0.22104009,-0.11678724,-0.07701272,
 0.23550372,0.00019509,-0.00031736,0.00016895,-0.00189199,0.00080154,-0
 .00009938,0.00013860,-0.00008491,0.00013746,0.00092841,0.00024777,-0.0
 0026852,0.00000886,0.00040505,-0.00001565,-0.02828578,-0.02634498,-0.0
 0969437,0.00002817,0.00012554,0.00001346,0.00010118,-0.00011852,0.0000
 1476,0.00167002,0.00362533,-0.00333275,0.00268716,-0.00495870,0.003297
 31,-0.00003591,0.00011644,0.00012913,-0.00174559,-0.00107980,-0.000436
 36,0.00028540,0.00019137,-0.00008972,-0.10676977,-0.11886683,-0.047436
 41,0.12196249,0.13672375,-0.00066972,-0.00032374,0.00073650,-0.0000628
 6,-0.00083988,-0.00026733,-0.00017321,0.00025180,-0.00006524,0.0003625
 2,0.00038731,-0.00002656,0.00003109,0.00027318,-0.00022732,0.01005809,
 0.00843449,0.00208545,0.00009871,0.00005990,-0.00000383,-0.00006251,-0
 .00007445,0.00000388,0.00053620,-0.00027017,0.00140175,-0.00032286,0.0
 0170494,-0.00125025,-0.00016936,-0.00000955,-0.00002257,0.00039337,0.0
 0055822,0.00070048,0.00006358,0.00019231,0.00027421,-0.08015163,-0.054
 42370,-0.08358186,0.08398788,0.05311858,0.08373384,-0.00000898,-0.0000
 6646,0.00028465,0.00103637,-0.00021788,-0.00088140,-0.00003320,-0.0000
 0557,0.00001065,0.00019329,0.00023616,-0.00016976,0.00000293,0.0001802
 4,-0.00005710,-0.00416265,0.00221232,0.00221565,0.00002518,0.00020803,
 0.00008138,0.00007096,-0.00012912,0.00007082,0.00112561,-0.00173067,-0
 .00069783,0.00054296,-0.00143652,-0.00008662,0.00064526,-0.00048550,0.
 00001615,0.00018600,-0.00006467,-0.00011394,-0.00001653,0.00006232,-0.
 00009018,-0.24994480,0.08663493,0.09005535,-0.01904384,0.00902367,0.00
 996375,0.26585659,-0.00065846,-0.00024359,0.00017583,-0.00216891,-0.00
 519028,0.00354153,0.00011594,0.00002440,0.00002253,0.00017298,0.000447
 24,-0.00017206,0.00009163,0.00031427,-0.00007349,0.03225057,-0.0232574
 5,-0.01072456,0.00181489,-0.00091684,-0.00059525,-0.00023880,0.0001539
 7,-0.00002355,-0.00243993,0.00292089,-0.00330570,0.00255218,0.00101699
 ,-0.00043702,-0.00089803,-0.00048376,0.00022303,-0.00020802,0.00037713
 ,0.00008718,-0.00012567,-0.00009553,-0.00000453,0.07727153,-0.07893712
 ,-0.03496927,-0.01388324,0.00790739,0.00709740,-0.09217958,0.09515052,
 -0.00011055,0.00002412,0.00015831,0.00014778,0.00129827,-0.00119476,-0
 .00000879,-0.00003946,0.00003871,-0.00002818,0.00006539,-0.00011584,-0
 .00000524,0.00003857,-0.00003315,-0.01060326,0.00714350,0.00256552,-0.
 00041192,0.00026494,0.00062390,-0.00005242,0.00021254,0.00031753,-0.00
 011545,-0.00001423,0.00131408,-0.00038242,-0.00043425,-0.00029237,-0.0
 0007383,-0.00003555,0.00050761,-0.00024975,0.00007425,-0.00003253,0.00
 015077,-0.00011312,-0.00010933,0.09476483,-0.04140101,-0.08993116,-0.0
 1007033,0.00462295,0.00476499,-0.09900546,0.03946342,0.09070616,0.0000
 0158,0.00013152,0.00004373,-0.00001142,0.00032106,-0.00051340,0.000118
 70,-0.00013789,0.00008250,-0.00013303,-0.00016558,-0.00011768,-0.00003
 073,-0.00001971,0.00006785,-0.00255628,-0.00050193,-0.00304730,0.00001
 988,-0.00012067,0.00015915,-0.00011691,0.00055610,0.00005435,0.0023539
 2,0.00085090,-0.00084719,-0.00014979,-0.00031736,0.00038139,-0.0000102
 9,0.00004875,0.00016424,-0.00013458,0.00010475,-0.00012230,0.00012772,
 -0.00051194,0.00004502,-0.05162507,0.00004432,-0.00482787,0.00196962,0
 .00169998,-0.02388305,0.00352487,-0.00146908,0.02605420,0.04665181,0.0
 0012158,-0.00009073,-0.00020408,-0.00031856,0.00085249,0.00006582,-0.0
 0022631,-0.00011154,0.00008621,0.00009768,0.00000245,-0.00003286,0.000
 05433,0.00006915,0.00003845,-0.00005465,0.00415215,0.02918007,-0.00026
 267,0.00022335,-0.00015342,0.00069754,-0.00064040,-0.00027646,0.000872
 33,-0.00483734,0.00747518,0.00042380,0.00063844,-0.00007865,-0.0001286
 3,-0.00007037,-0.00002766,0.00018674,0.00027748,-0.00018653,-0.0006718
 9,-0.00080050,-0.00014601,-0.00017952,-0.05539002,-0.00910369,0.002143
 12,0.00162694,-0.01613662,-0.00224169,0.00081178,-0.01117032,-0.000513
 22,0.05328667,-0.00029293,0.00017934,0.00001939,0.00067809,-0.00073312
 ,-0.00066411,0.00027986,-0.00003130,0.00006641,-0.00012319,-0.00008070
 ,-0.00010101,-0.00005251,-0.00001856,0.00006280,0.00009769,-0.00412176
 ,-0.01144062,0.00002349,0.00000743,0.00031532,-0.00011280,0.00008565,0
 .00126040,-0.00068311,0.00622680,-0.00141982,-0.00049506,-0.00089120,-
 0.00057248,-0.00004853,0.00006942,-0.00009188,0.00003798,0.00008398,0.
 00025244,0.00019376,0.00015060,0.00126635,-0.00545138,-0.00116223,-0.3
 0539548,0.00123838,-0.00012944,-0.00825613,-0.00159610,-0.00030549,-0.
 00928768,0.00630637,0.00067057,0.33398609\\-0.00002056,-0.00000297,-0.
 00000969,0.00001038,0.00000397,0.00000866,0.00000376,-0.00000237,0.000
 00778,0.00000146,0.00000368,-0.00000349,0.00000924,-0.00000485,0.00000
 304,-0.00000269,-0.00000241,-0.00001000,-0.00000062,-0.00000256,0.0000
 0230,0.00000286,-0.00000027,-0.00000920,0.00000079,0.00000199,0.000005
 33,0.00000836,0.00001129,0.00000642,-0.00000539,0.00000172,0.00000266,
 -0.00000017,-0.00000353,0.00000035,-0.00000403,-0.00000163,-0.00000860
 ,0.00000014,-0.00000818,0.00000738,0.00000384,-0.00000174,0.00000357,-
 0.00000609,0.00000544,0.00000085,-0.00000129,0.00000240,-0.00000736\\\
 @


 LOGIC IS A SYSTEMATIC METHOD OF COMING TO THE
 WRONG CONCLUSION WITH CONFIDENCE.
 Job cpu time:       0 days  0 hours 51 minutes 14.4 seconds.
 Elapsed time:       0 days  0 hours  4 minutes 16.6 seconds.
 File lengths (MBytes):  RWF=     94 Int=      0 D2E=      0 Chk=     32 Scr=      1
 Normal termination of Gaussian 16 at Fri Jun 10 10:35:26 2022.
