 Entering Gaussian System, Link 0=g16
 Input=int_zmat_field_N25.gjf
 Output=int_zmat_field_N25.out
 Initial command:
 /software/gaussian/g16-a03/l1.exe "/local_scratch/11171765/Gau-12466.inp" -scrdir="/local_scratch/11171765/"
 Entering Link 1 = /software/gaussian/g16-a03/l1.exe PID=     12467.
  
 Copyright (c) 1988,1990,1992,1993,1995,1998,2003,2009,2016,
            Gaussian, Inc.  All Rights Reserved.
  
 This is part of the Gaussian(R) 16 program.  It is based on
 the Gaussian(R) 09 system (copyright 2009, Gaussian, Inc.),
 the Gaussian(R) 03 system (copyright 2003, Gaussian, Inc.),
 the Gaussian(R) 98 system (copyright 1998, Gaussian, Inc.),
 the Gaussian(R) 94 system (copyright 1995, Gaussian, Inc.),
 the Gaussian 92(TM) system (copyright 1992, Gaussian, Inc.),
 the Gaussian 90(TM) system (copyright 1990, Gaussian, Inc.),
 the Gaussian 88(TM) system (copyright 1988, Gaussian, Inc.),
 the Gaussian 86(TM) system (copyright 1986, Carnegie Mellon
 University), and the Gaussian 82(TM) system (copyright 1983,
 Carnegie Mellon University). Gaussian is a federally registered
 trademark of Gaussian, Inc.
  
 This software contains proprietary and confidential information,
 including trade secrets, belonging to Gaussian, Inc.
  
 This software is provided under written license and may be
 used, copied, transmitted, or stored only in accord with that
 written license.
  
 The following legend is applicable only to US Government
 contracts under FAR:
  
                    RESTRICTED RIGHTS LEGEND
  
 Use, reproduction and disclosure by the US Government is
 subject to restrictions as set forth in subparagraphs (a)
 and (c) of the Commercial Computer Software - Restricted
 Rights clause in FAR 52.227-19.
  
 Gaussian, Inc.
 340 Quinnipiac St., Bldg. 40, Wallingford CT 06492
  
  
 ---------------------------------------------------------------
 Warning -- This program may not be used in any manner that
 competes with the business of Gaussian, Inc. or will provide
 assistance to any competitor of Gaussian, Inc.  The licensee
 of this program is prohibited from giving any competitor of
 Gaussian, Inc. access to this program.  By using this program,
 the user acknowledges that Gaussian, Inc. is engaged in the
 business of creating and licensing software in the field of
 computational chemistry and represents and warrants to the
 licensee that it is not a competitor of Gaussian, Inc. and that
 it will not use this program in any manner prohibited above.
 ---------------------------------------------------------------
  

 Cite this work as:
 Gaussian 16, Revision A.03,
 M. J. Frisch, G. W. Trucks, H. B. Schlegel, G. E. Scuseria, 
 M. A. Robb, J. R. Cheeseman, G. Scalmani, V. Barone, 
 G. A. Petersson, H. Nakatsuji, X. Li, M. Caricato, A. V. Marenich, 
 J. Bloino, B. G. Janesko, R. Gomperts, B. Mennucci, H. P. Hratchian, 
 J. V. Ortiz, A. F. Izmaylov, J. L. Sonnenberg, D. Williams-Young, 
 F. Ding, F. Lipparini, F. Egidi, J. Goings, B. Peng, A. Petrone, 
 T. Henderson, D. Ranasinghe, V. G. Zakrzewski, J. Gao, N. Rega, 
 G. Zheng, W. Liang, M. Hada, M. Ehara, K. Toyota, R. Fukuda, 
 J. Hasegawa, M. Ishida, T. Nakajima, Y. Honda, O. Kitao, H. Nakai, 
 T. Vreven, K. Throssell, J. A. Montgomery, Jr., J. E. Peralta, 
 F. Ogliaro, M. J. Bearpark, J. J. Heyd, E. N. Brothers, K. N. Kudin, 
 V. N. Staroverov, T. A. Keith, R. Kobayashi, J. Normand, 
 K. Raghavachari, A. P. Rendell, J. C. Burant, S. S. Iyengar, 
 J. Tomasi, M. Cossi, J. M. Millam, M. Klene, C. Adamo, R. Cammi, 
 J. W. Ochterski, R. L. Martin, K. Morokuma, O. Farkas, 
 J. B. Foresman, and D. J. Fox, Gaussian, Inc., Wallingford CT, 2016.
 
 ******************************************
 Gaussian 16:  ES64L-G16RevA.03 25-Dec-2016
                10-Jun-2022 
 ******************************************
 %nprocshared=12
 Will use up to   12 processors via shared memory.
 %chk=checkpoint.chk
 %mem=12GB
 ----------------------------------------------------------------------
 # Opt=(Z-matrix, MaxStep=10) B3LYP/Def2TZVP Field=read NoSymm freq=nor
 aman pop=none
 ----------------------------------------------------------------------
 1/8=10,10=7,18=40,26=3,38=1/1,3;
 2/12=2,15=1,17=6,18=5,29=3,40=1/2;
 3/5=44,7=101,11=2,14=-6,25=1,30=1,71=1,74=-5/1,2,3;
 4//1;
 5/5=2,38=5/2;
 7/29=1,30=1/1,2,3,16;
 1/8=10,10=7,18=40,26=3/3(2);
 2/15=1,29=3/2;
 99//99;
 2/15=1,29=3/2;
 3/5=44,7=101,11=2,14=-2,25=1,30=1,71=1,74=-5/1,2,3;
 4/5=5,16=3,69=1/1;
 5/5=2,38=5/2;
 7/30=1/1,2,3,16;
 1/8=10,18=40,26=3/3(-5);
 2/15=1,29=3/2;
 99/9=1/99;
 ------------------
 int_zmat_initalOpt
 ------------------
 Symbolic Z-matrix:
 Charge =  0 Multiplicity = 1
 N
 C                    1    R2
 O                    1    R3       2    A3
 C                    1    R4       2    A4       3    D4       0
 C                    1    R5       2    A5       3    D5       0
 C                    2    R6       1    A6       3    D6       0
 H                    2    R7       1    A7       6    D7       0
 H                    2    R8       1    A8       6    D8       0
 H                    4    R9       1    A9       2    D9       0
 H                    4    R10      1    A10      9    D10      0
 H                    4    R11      1    A11      9    D11      0
 H                    5    R12      1    A12      2    D12      0
 H                    5    R13      1    A13      12   D13      0
 H                    5    R14      1    A14      12   D14      0
 H                    6    R15      2    A15      1    D15      0
 H                    6    R16      2    A16      15   D16      0
 H                    6    R17      2    A17      15   D17      0
       Variables:
  R2                    1.52387                  
  R3                    1.35902                  
  R4                    1.49749                  
  R5                    1.49918                  
  R6                    1.51409                  
  R7                    1.08847                  
  R8                    1.09335                  
  R9                    1.08607                  
  R10                   1.08589                  
  R11                   1.0922                   
  R12                   1.08437                  
  R13                   1.08592                  
  R14                   1.09202                  
  R15                   1.08893                  
  R16                   1.09075                  
  R17                   1.09125                  
  A3                  110.53467                  
  A4                  108.02554                  
  A5                  110.52817                  
  A6                  112.74232                  
  A7                  103.97533                  
  A8                  108.37419                  
  A9                  107.0063                   
  A10                 107.00844                  
  A11                 111.39845                  
  A12                 107.59121                  
  A13                 106.74391                  
  A14                 111.36879                  
  A15                 109.05887                  
  A16                 112.66612                  
  A17                 109.08598                  
  D4                 -119.52251                  
  D5                  121.61106                  
  D6                  -55.45287                  
  D7                  119.25899                  
  D8                 -124.88504                  
  D9                  179.13547                  
  D10                -117.07522                  
  D11                 121.4654                   
  D12                 -65.00845                  
  D13                -116.95438                  
  D14                 121.87149                  
  D15                  48.28613                  
  D16                -121.58873                  
  D17                 119.06537                  
 

 GradGradGradGradGradGradGradGradGradGradGradGradGradGradGradGradGradGrad
 Berny optimization.
 Initialization pass.
                       ----------------------------
                       !    Initial Parameters    !
                       ! (Angstroms and Degrees)  !
 ----------------------                            ----------------------
 !      Name          Value   Derivative information (Atomic Units)     !
 ------------------------------------------------------------------------
 !       R2          1.5239   estimate D2E/DX2                          !
 !       R3          1.359    estimate D2E/DX2                          !
 !       R4          1.4975   estimate D2E/DX2                          !
 !       R5          1.4992   estimate D2E/DX2                          !
 !       R6          1.5141   estimate D2E/DX2                          !
 !       R7          1.0885   estimate D2E/DX2                          !
 !       R8          1.0934   estimate D2E/DX2                          !
 !       R9          1.0861   estimate D2E/DX2                          !
 !       R10         1.0859   estimate D2E/DX2                          !
 !       R11         1.0922   estimate D2E/DX2                          !
 !       R12         1.0844   estimate D2E/DX2                          !
 !       R13         1.0859   estimate D2E/DX2                          !
 !       R14         1.092    estimate D2E/DX2                          !
 !       R15         1.0889   estimate D2E/DX2                          !
 !       R16         1.0907   estimate D2E/DX2                          !
 !       R17         1.0913   estimate D2E/DX2                          !
 !       A3        110.5347   estimate D2E/DX2                          !
 !       A4        108.0255   estimate D2E/DX2                          !
 !       A5        110.5282   estimate D2E/DX2                          !
 !       A6        112.7423   estimate D2E/DX2                          !
 !       A7        103.9753   estimate D2E/DX2                          !
 !       A8        108.3742   estimate D2E/DX2                          !
 !       A9        107.0063   estimate D2E/DX2                          !
 !       A10       107.0084   estimate D2E/DX2                          !
 !       A11       111.3984   estimate D2E/DX2                          !
 !       A12       107.5912   estimate D2E/DX2                          !
 !       A13       106.7439   estimate D2E/DX2                          !
 !       A14       111.3688   estimate D2E/DX2                          !
 !       A15       109.0589   estimate D2E/DX2                          !
 !       A16       112.6661   estimate D2E/DX2                          !
 !       A17       109.086    estimate D2E/DX2                          !
 !       D4       -119.5225   estimate D2E/DX2                          !
 !       D5        121.6111   estimate D2E/DX2                          !
 !       D6        -55.4529   estimate D2E/DX2                          !
 !       D7        119.259    estimate D2E/DX2                          !
 !       D8       -124.885    estimate D2E/DX2                          !
 !       D9        179.1355   estimate D2E/DX2                          !
 !       D10      -117.0752   estimate D2E/DX2                          !
 !       D11       121.4654   estimate D2E/DX2                          !
 !       D12       -65.0085   estimate D2E/DX2                          !
 !       D13      -116.9544   estimate D2E/DX2                          !
 !       D14       121.8715   estimate D2E/DX2                          !
 !       D15        48.2861   estimate D2E/DX2                          !
 !       D16      -121.5887   estimate D2E/DX2                          !
 !       D17       119.0654   estimate D2E/DX2                          !
 ------------------------------------------------------------------------
 Trust Radius=1.00D-01 FncErr=1.00D-07 GrdErr=1.00D-06 EigMax=2.50D+02 EigMin=1.00D-04
 Number of steps in this run=     55 maximum allowed number of steps=    100.
 GradGradGradGradGradGradGradGradGradGradGradGradGradGradGradGradGradGrad

 ---------------------------------------------------------------------------------------------------
                            Z-MATRIX (ANGSTROMS AND DEGREES)
   CD    Cent   Atom    N1       Length/X        N2       Alpha/Y        N3        Beta/Z          J
 ---------------------------------------------------------------------------------------------------
      1      1  N 
      2      2  C        1   1.523873(     1)
      3      3  O        1   1.359022(     2)      2  110.535(    17)
      4      4  C        1   1.497488(     3)      2  108.026(    18)      3 -119.523(    32)      0
      5      5  C        1   1.499180(     4)      2  110.528(    19)      3  121.611(    33)      0
      6      6  C        2   1.514092(     5)      1  112.742(    20)      3  -55.453(    34)      0
      7      7  H        2   1.088473(     6)      1  103.975(    21)      6  119.259(    35)      0
      8      8  H        2   1.093355(     7)      1  108.374(    22)      6 -124.885(    36)      0
      9      9  H        4   1.086068(     8)      1  107.006(    23)      2  179.135(    37)      0
     10     10  H        4   1.085894(     9)      1  107.008(    24)      9 -117.075(    38)      0
     11     11  H        4   1.092202(    10)      1  111.398(    25)      9  121.465(    39)      0
     12     12  H        5   1.084374(    11)      1  107.591(    26)      2  -65.008(    40)      0
     13     13  H        5   1.085920(    12)      1  106.744(    27)     12 -116.954(    41)      0
     14     14  H        5   1.092024(    13)      1  111.369(    28)     12  121.871(    42)      0
     15     15  H        6   1.088931(    14)      2  109.059(    29)      1   48.286(    43)      0
     16     16  H        6   1.090748(    15)      2  112.666(    30)     15 -121.589(    44)      0
     17     17  H        6   1.091252(    16)      2  109.086(    31)     15  119.065(    45)      0
 ---------------------------------------------------------------------------------------------------
                         Z-Matrix orientation:                         
 ---------------------------------------------------------------------
 Center     Atomic      Atomic             Coordinates (Angstroms)
 Number     Number       Type             X           Y           Z
 ---------------------------------------------------------------------
      1          7           0        0.000000    0.000000    0.000000
      2          6           0        0.000000    0.000000    1.523873
      3          8           0        1.272670    0.000000   -0.476710
      4          6           0       -0.701693    1.239102   -0.463384
      5          6           0       -0.735898   -1.195667   -0.525714
      6          6           0        0.791862   -1.150139    2.109202
      7          1           0        0.466241    0.947783    1.786743
      8          1           0       -1.037595    0.006119    1.868522
      9          1           0       -0.678555    1.230045   -1.549168
     10          1           0       -0.126463    2.084984   -0.099019
     11          1           0       -1.728997    1.276910   -0.094438
     12          1           0       -0.179160   -2.078527   -0.231660
     13          1           0       -0.728776   -1.116144   -1.608695
     14          1           0       -1.758603   -1.232681   -0.144637
     15          1           0        1.760791   -1.202625    1.615043
     16          1           0        0.281028   -2.108220    2.004994
     17          1           0        0.943880   -0.972732    3.175151
 ---------------------------------------------------------------------
                    Distance matrix (angstroms):
                    1          2          3          4          5
     1  N    0.000000
     2  C    1.523873   0.000000
     3  O    1.359022   2.371080   0.000000
     4  C    1.497488   2.444777   2.331021   0.000000
     5  C    1.499180   2.484346   2.338026   2.435807   0.000000
     6  C    2.529545   1.514092   2.870703   3.815413   3.046130
     7  H    2.075602   1.088473   2.582991   2.551864   3.374459
     8  H    2.137291   1.093355   3.292032   2.659109   2.695863
     9  H    2.091260   3.378909   2.543709   1.086068   2.633405
    10  H    2.091161   2.645171   2.539170   1.085894   3.363949
    11  H    2.151476   2.690512   3.284301   1.092202   2.699237
    12  H    2.099057   2.726586   2.547182   3.366511   1.084374
    13  H    2.089209   3.404390   2.555965   2.619094   1.085920
    14  H    2.152465   2.719579   3.289132   2.707096   1.092024
    15  H    2.674893   2.134245   2.461707   4.042983   3.288821
    16  H    2.922938   2.180607   3.403939   4.273545   2.875999
    17  H    3.452347   2.136314   3.793468   4.564982   4.070351
                    6          7          8          9         10
     6  C    0.000000
     7  H    2.147390   0.000000
     8  H    2.177562   1.776215   0.000000
     9  H    4.605547   3.538154   3.647945   0.000000
    10  H    4.023131   2.280488   3.003840   1.771625   0.000000
    11  H    4.135374   2.909680   2.438474   1.794955   1.794747
    12  H    2.698967   3.694462   3.081140   3.596091   4.165957
    13  H    4.016995   4.149321   3.666863   2.347481   3.590142
    14  H    3.404625   3.665321   2.471292   3.033847   3.697683
    15  H    1.088931   2.515868   3.058804   4.677662   4.160302
    16  H    1.090748   3.069379   2.495561   4.969595   4.709127
    17  H    1.091252   2.417476   2.567426   5.459278   4.606024
                   11         12         13         14         15
    11  H    0.000000
    12  H    3.698619   0.000000
    13  H    3.003352   1.767621   0.000000
    14  H    2.510267   1.793786   1.793764   0.000000
    15  H    4.609668   2.817965   4.074053   3.934909   0.000000
    16  H    4.461716   2.283697   3.881065   3.089914   1.778163
    17  H    4.784911   3.753713   5.069865   4.288587   1.775988
                   16         17
    16  H    0.000000
    17  H    1.760106   0.000000
 Symmetry turned off by external request.
 Stoichiometry    C4H11NO
 Framework group  C1[X(C4H11NO)]
 Deg. of freedom    45
 Full point group                 C1      NOp   1
 Rotational constants (GHZ):           4.9308556           2.7662964           2.6762148
 Standard basis: def2TZVP (5D, 7F)
 The following finite field(s) will be applied:
 An electric field of             -0.0012 -0.0000  0.0022
   252 basis functions,   394 primitive gaussians,   282 cartesian basis functions
    25 alpha electrons       25 beta electrons
       nuclear repulsion energy       274.8054052358 Hartrees.
 NAtoms=   17 NActive=   17 NUniq=   17 SFac= 1.00D+00 NAtFMM=   60 NAOKFM=F Big=F
 Integral buffers will be    131072 words long.
 Raffenetti 2 integral format.
 Two-electron integral symmetry is turned off.
 One-electron integrals computed using PRISM.
   1 Symmetry operations used in ECPInt.
 ECPInt:  NShTT=    6105 NPrTT=   17556 LenC2=    6069 LenP2D=   14639.
 LDataN:  DoStor=T MaxTD1= 6 Len=  172
 NBasis=   252 RedAO= T EigKep=  3.09D-04  NBF=   252
 NBsUse=   252 1.00D-06 EigRej= -1.00D+00 NBFU=   252
 The nuclear repulsion energy is now       274.8763248001 hartrees.
 ExpMin= 9.52D-02 ExpMax= 2.70D+04 ExpMxC= 9.22D+02 IAcc=3 IRadAn=         5 AccDes= 0.00D+00
 Harris functional with IExCor=  402 and IRadAn=       5 diagonalized for initial guess.
 HarFok:  IExCor=  402 AccDes= 0.00D+00 IRadAn=         5 IDoV= 1 UseB2=F ITyADJ=14
 ICtDFT=  3500011 ScaDFX=  1.000000  1.000000  1.000000  1.000000
 FoFCou: FMM=F IPFlag=           0 FMFlag=      100000 FMFlg1=           0
         NFxFlg=           0 DoJE=T BraDBF=F KetDBF=T FulRan=T
         wScrn=  0.000000 ICntrl=       500 IOpCl=  0 I1Cent=   200000004 NGrid=           0
         NMat0=    1 NMatS0=      1 NMatT0=    0 NMatD0=    1 NMtDS0=    0 NMtDT0=    0
 Symmetry not used in FoFCou.
 Requested convergence on RMS density matrix=1.00D-08 within 128 cycles.
 Requested convergence on MAX density matrix=1.00D-06.
 Requested convergence on             energy=1.00D-06.
 No special actions if energy rises.
 Integral accuracy reduced to 1.0D-05 until final iterations.
 Initial convergence to 1.0D-05 achieved.  Increase integral accuracy.
 SCF Done:  E(RB3LYP) =  -289.051890077     A.U. after   14 cycles
            NFock= 14  Conv=0.21D-08     -V/T= 2.0051
   1 Symmetry operations used in ECPInt.
 ECPInt:  NShTT=    6105 NPrTT=   17556 LenC2=    6069 LenP2D=   14639.
 LDataN:  DoStor=T MaxTD1= 7 Len=  274
 Calling FoFJK, ICntrl=      2127 FMM=F ISym2X=0 I1Cent= 0 IOpClX= 0 NMat=1 NMatS=1 NMatT=0.
 -------------------------------------------------------------------
 Center     Atomic                   Forces (Hartrees/Bohr)
 Number     Number              X              Y              Z
 -------------------------------------------------------------------
      1        7           0.000585860    0.000034993   -0.000211549
      2        6           0.000152996    0.000068744   -0.000595506
      3        8          -0.000946534   -0.000107459    0.001492341
      4        6           0.000242395    0.000158494   -0.000290398
      5        6           0.000199210   -0.000146562   -0.000276933
      6        6          -0.000051708    0.000009513    0.000041529
      7        1           0.000110129    0.000037191   -0.000043616
      8        1          -0.000328566   -0.000027439    0.000124006
      9        1           0.000051746    0.000100194    0.000104874
     10        1           0.000121806    0.000037183   -0.000162746
     11        1          -0.000253979   -0.000083077    0.000016307
     12        1           0.000090198   -0.000041364   -0.000207205
     13        1           0.000061288   -0.000116217    0.000101112
     14        1          -0.000244110    0.000069930    0.000015611
     15        1          -0.000009105    0.000003433   -0.000184833
     16        1           0.000042408   -0.000073304   -0.000178700
     17        1           0.000175967    0.000075747    0.000255706
 -------------------------------------------------------------------
 Cartesian Forces:  Max     0.001492341 RMS     0.000307269
 -----------------------------------------------------------------------------------------------
                       Internal Coordinate Forces (Hartree/Bohr or radian)
  Cent   Atom   N1       Length/X         N2         Alpha/Y        N3         Beta/Z          J
 -----------------------------------------------------------------------------------------------
      1  N 
      2  C        1  -0.000581(     1)
      3  O        1  -0.001410(     2)      2  -0.002736(    17)
      4  C        1   0.000203(     3)      2   0.000819(    18)      3   0.000631(    32)     0
      5  C        1   0.000263(     4)      2   0.000915(    19)      3  -0.000511(    33)     0
      6  C        2   0.000045(     5)      1  -0.000731(    20)      3   0.000374(    34)     0
      7  H        2   0.000069(     6)      1  -0.000128(    21)      6  -0.000164(    35)     0
      8  H        2   0.000351(     7)      1   0.000029(    22)      6   0.000058(    36)     0
      9  H        4  -0.000105(     8)      1   0.000122(    23)      2   0.000005(    37)     0
     10  H        4   0.000039(     9)      1   0.000027(    24)      9   0.000397(    38)     0
     11  H        4   0.000242(    10)      1  -0.000095(    25)      9  -0.000204(    39)     0
     12  H        5   0.000024(    11)      1   0.000116(    26)      2  -0.000023(    40)     0
     13  H        5  -0.000109(    12)      1   0.000125(    27)     12   0.000214(    41)     0
     14  H        5   0.000232(    13)      1  -0.000057(    28)     12   0.000195(    42)     0
     15  H        6   0.000076(    14)      2  -0.000225(    29)      1  -0.000157(    43)     0
     16  H        6   0.000062(    15)      2  -0.000033(    30)     15   0.000356(    44)     0
     17  H        6   0.000287(    16)      2   0.000086(    31)     15  -0.000263(    45)     0
 -----------------------------------------------------------------------------------------------
 Internal  Forces:  Max     0.002736392 RMS     0.000553592

 GradGradGradGradGradGradGradGradGradGradGradGradGradGradGradGradGradGrad
 Berny optimization.
 Search for a local minimum.
 Step number   1 out of a maximum of   55
 All quantities printed in internal units (Hartrees-Bohrs-Radians)
 Second derivative matrix not updated -- first step.
 ITU=  0
     Eigenvalues ---    0.00895   0.02973   0.03035   0.03235   0.07435
     Eigenvalues ---    0.08963   0.09013   0.10367   0.12447   0.13266
     Eigenvalues ---    0.13794   0.13844   0.17845   0.22606   0.23105
     Eigenvalues ---    0.23216   0.24397   0.24809   0.29997   0.30943
     Eigenvalues ---    0.31613   0.31714   0.32463   0.32642   0.33021
     Eigenvalues ---    0.34428   0.34559   0.34580   0.34668   0.34726
     Eigenvalues ---    0.34936   0.34989   0.35271   0.35288   0.35291
     Eigenvalues ---    0.35471   0.35711   0.37727   0.39392   0.40328
     Eigenvalues ---    0.40343   0.42883   0.53125   0.53264   0.61426
 RFO step:  Lambda=-6.88754557D-05 EMin= 8.94576519D-03
 Linear search not attempted -- first point.
 Variable       Old X    -DE/DX   Delta X   Delta X   Delta X     New X
                                 (Linear)    (Quad)   (Total)
    R2        2.87970  -0.00058   0.00000  -0.00194  -0.00194   2.87776
    R3        2.56818  -0.00141   0.00000  -0.00263  -0.00263   2.56555
    R4        2.82984   0.00020   0.00000   0.00063   0.00063   2.83047
    R5        2.83304   0.00026   0.00000   0.00082   0.00082   2.83386
    R6        2.86122   0.00005   0.00000   0.00015   0.00015   2.86137
    R7        2.05692   0.00007   0.00000   0.00019   0.00019   2.05711
    R8        2.06614   0.00035   0.00000   0.00102   0.00102   2.06716
    R9        2.05237  -0.00010   0.00000  -0.00029  -0.00029   2.05208
   R10        2.05204   0.00004   0.00000   0.00011   0.00011   2.05215
   R11        2.06396   0.00024   0.00000   0.00070   0.00070   2.06466
   R12        2.04917   0.00002   0.00000   0.00007   0.00007   2.04924
   R13        2.05209  -0.00011   0.00000  -0.00031  -0.00031   2.05178
   R14        2.06363   0.00023   0.00000   0.00067   0.00067   2.06430
   R15        2.05778   0.00008   0.00000   0.00022   0.00022   2.05800
   R16        2.06121   0.00006   0.00000   0.00018   0.00018   2.06140
   R17        2.06217   0.00029   0.00000   0.00083   0.00083   2.06299
    A3        1.92919  -0.00274   0.00000  -0.01068  -0.01068   1.91851
    A4        1.88540   0.00082   0.00000   0.00468   0.00468   1.89008
    A5        1.92908   0.00091   0.00000   0.00408   0.00408   1.93316
    A6        1.96772  -0.00073   0.00000  -0.00255  -0.00255   1.96518
    A7        1.81471  -0.00013   0.00000  -0.00093  -0.00093   1.81378
    A8        1.89149   0.00003   0.00000   0.00180   0.00180   1.89329
    A9        1.86761   0.00012   0.00000   0.00008   0.00008   1.86769
   A10        1.86765   0.00003   0.00000   0.00026   0.00026   1.86791
   A11        1.94427  -0.00010   0.00000  -0.00002  -0.00002   1.94425
   A12        1.87782   0.00012   0.00000   0.00065   0.00065   1.87847
   A13        1.86303   0.00013   0.00000  -0.00007  -0.00007   1.86296
   A14        1.94375  -0.00006   0.00000   0.00018   0.00018   1.94393
   A15        1.90344  -0.00023   0.00000  -0.00240  -0.00240   1.90104
   A16        1.96639  -0.00003   0.00000   0.00075   0.00075   1.96715
   A17        1.90391   0.00009   0.00000   0.00133   0.00133   1.90524
    D4       -2.08606   0.00063   0.00000   0.00227   0.00227  -2.08379
    D5        2.12251  -0.00051   0.00000  -0.00565  -0.00565   2.11687
    D6       -0.96784   0.00037   0.00000   0.04050   0.04050  -0.92734
    D7        2.08146  -0.00016   0.00000  -0.00332  -0.00332   2.07814
    D8       -2.17966   0.00006   0.00000  -0.00175  -0.00175  -2.18140
    D9        3.12650   0.00001   0.00000  -0.00627  -0.00627   3.12023
   D10       -2.04335   0.00040   0.00000   0.00153   0.00153  -2.04182
   D11        2.11997  -0.00020   0.00000  -0.00028  -0.00028   2.11969
   D12       -1.13461  -0.00002   0.00000   0.00472   0.00472  -1.12989
   D13       -2.04124   0.00021   0.00000   0.00176   0.00176  -2.03948
   D14        2.12706   0.00019   0.00000   0.00208   0.00208   2.12914
   D15        0.84275  -0.00016   0.00000  -0.00426  -0.00426   0.83849
   D16       -2.12212   0.00036   0.00000   0.00297   0.00297  -2.11915
   D17        2.07808  -0.00026   0.00000  -0.00060  -0.00060   2.07748
         Item               Value     Threshold  Converged?
 Maximum Force            0.002736     0.000450     NO 
 RMS     Force            0.000554     0.000300     NO 
 Maximum Displacement     0.040498     0.001800     NO 
 RMS     Displacement     0.006628     0.001200     NO 
 Predicted change in Energy=-3.450594D-05
 GradGradGradGradGradGradGradGradGradGradGradGradGradGradGradGradGradGrad

 ---------------------------------------------------------------------------------------------------
                            Z-MATRIX (ANGSTROMS AND DEGREES)
   CD    Cent   Atom    N1       Length/X        N2       Alpha/Y        N3        Beta/Z          J
 ---------------------------------------------------------------------------------------------------
      1      1  N 
      2      2  C        1   1.522847(     1)
      3      3  O        1   1.357629(     2)      2  109.922(    17)
      4      4  C        1   1.497822(     3)      2  108.294(    18)      3 -119.392(    32)      0
      5      5  C        1   1.499615(     4)      2  110.762(    19)      3  121.288(    33)      0
      6      6  C        2   1.514173(     5)      1  112.596(    20)      3  -53.133(    34)      0
      7      7  H        2   1.088575(     6)      1  103.922(    21)      6  119.069(    35)      0
      8      8  H        2   1.093894(     7)      1  108.478(    22)      6 -124.985(    36)      0
      9      9  H        4   1.085912(     8)      1  107.011(    23)      2  178.776(    37)      0
     10     10  H        4   1.085952(     9)      1  107.023(    24)      9 -116.987(    38)      0
     11     11  H        4   1.092573(    10)      1  111.397(    25)      9  121.449(    39)      0
     12     12  H        5   1.084409(    11)      1  107.628(    26)      2  -64.738(    40)      0
     13     13  H        5   1.085757(    12)      1  106.740(    27)     12 -116.854(    41)      0
     14     14  H        5   1.092380(    13)      1  111.379(    28)     12  121.991(    42)      0
     15     15  H        6   1.089045(    14)      2  108.921(    29)      1   48.042(    43)      0
     16     16  H        6   1.090845(    15)      2  112.709(    30)     15 -121.419(    44)      0
     17     17  H        6   1.091690(    16)      2  109.162(    31)     15  119.031(    45)      0
 ---------------------------------------------------------------------------------------------------
                         Z-Matrix orientation:                         
 ---------------------------------------------------------------------
 Center     Atomic      Atomic             Coordinates (Angstroms)
 Number     Number       Type             X           Y           Z
 ---------------------------------------------------------------------
      1          7           0        0.000000    0.000000    0.000000
      2          6           0        0.000000    0.000000    1.522847
      3          8           0        1.276381    0.000000   -0.462610
      4          6           0       -0.697959    1.239067   -0.470147
      5          6           0       -0.728225   -1.198305   -0.531598
      6          6           0        0.838716   -1.118385    2.104648
      7          1           0        0.430830    0.964771    1.784761
      8          1           0       -1.036942   -0.034078    1.869538
      9          1           0       -0.666743    1.228837   -1.555562
     10          1           0       -0.124481    2.085392   -0.103884
     11          1           0       -1.728419    1.277476   -0.109049
     12          1           0       -0.170177   -2.079731   -0.235605
     13          1           0       -0.713423   -1.118345   -1.614306
     14          1           0       -1.754024   -1.238882   -0.158255
     15          1           0        1.806001   -1.131320    1.604438
     16          1           0        0.366947   -2.096428    2.000681
     17          1           0        0.990062   -0.935698    3.170249
 ---------------------------------------------------------------------
                    Distance matrix (angstroms):
                    1          2          3          4          5
     1  N    0.000000
     2  C    1.522847   0.000000
     3  O    1.357629   2.360337   0.000000
     4  C    1.497822   2.448358   2.330957   0.000000
     5  C    1.499615   2.487367   2.336481   2.438335   0.000000
     6  C    2.526612   1.514173   2.834281   3.814251   3.067814
     7  H    2.074071   1.088575   2.587744   2.536535   3.374586
     8  H    2.138126   1.093894   3.285048   2.685132   2.686296
     9  H    2.091497   3.381004   2.545646   1.085912   2.635014
    10  H    2.091685   2.647756   2.537707   1.085952   3.366024
    11  H    2.152039   2.698604   3.284171   1.092573   2.703411
    12  H    2.099941   2.728809   2.543490   3.368677   1.084409
    13  H    2.089414   3.406083   2.556642   2.620445   1.085757
    14  H    2.153247   2.727184   3.287981   2.711602   1.092380
    15  H    2.667536   2.132647   2.415175   4.023985   3.315033
    16  H    2.921025   2.181280   3.360042   4.285387   2.901459
    17  H    3.450541   2.137683   3.762336   4.564154   4.089639
                    6          7          8          9         10
     6  C    0.000000
     7  H    2.146681   0.000000
     8  H    2.179240   1.777425   0.000000
     9  H    4.601412   3.525926   3.669238   0.000000
    10  H    4.008684   2.265203   3.036303   1.770623   0.000000
    11  H    4.150998   2.889059   2.472473   1.794971   1.795932
    12  H    2.723753   3.702983   3.060655   3.596594   4.167456
    13  H    4.029858   4.147571   3.662987   2.348380   3.590565
    14  H    3.443479   3.661282   2.465300   3.037151   3.702589
    15  H    1.089045   2.513406   3.058847   4.655148   4.122179
    16  H    1.090845   3.069469   2.498277   4.977224   4.707262
    17  H    1.091690   2.417458   2.571675   5.455594   4.592292
                   11         12         13         14         15
    11  H    0.000000
    12  H    3.703374   0.000000
    13  H    3.005990   1.766408   0.000000
    14  H    2.516970   1.794877   1.793730   0.000000
    15  H    4.607653   2.861909   4.087540   3.973970   0.000000
    16  H    4.497194   2.299947   3.897689   3.145617   1.777448
    17  H    4.800217   3.775554   5.082046   4.324450   1.776454
                   16         17
    16  H    0.000000
    17  H    1.761663   0.000000
 Symmetry turned off by external request.
 Stoichiometry    C4H11NO
 Framework group  C1[X(C4H11NO)]
 Deg. of freedom    45
 Full point group                 C1      NOp   1
 Rotational constants (GHZ):           4.9412613           2.7721812           2.6766065
 Standard basis: def2TZVP (5D, 7F)
 The following finite field(s) will be applied:
 An electric field of             -0.0012 -0.0000  0.0022
   252 basis functions,   394 primitive gaussians,   282 cartesian basis functions
    25 alpha electrons       25 beta electrons
       nuclear repulsion energy       274.9233703185 Hartrees.
 NAtoms=   17 NActive=   17 NUniq=   17 SFac= 1.00D+00 NAtFMM=   60 NAOKFM=F Big=F
 Integral buffers will be    131072 words long.
 Raffenetti 2 integral format.
 Two-electron integral symmetry is turned off.
 One-electron integrals computed using PRISM.
   1 Symmetry operations used in ECPInt.
 ECPInt:  NShTT=    6105 NPrTT=   17556 LenC2=    6069 LenP2D=   14641.
 LDataN:  DoStor=T MaxTD1= 6 Len=  172
 NBasis=   252 RedAO= T EigKep=  3.07D-04  NBF=   252
 NBsUse=   252 1.00D-06 EigRej= -1.00D+00 NBFU=   252
 The nuclear repulsion energy is now       274.9927590091 hartrees.
 Initial guess from the checkpoint file:  "checkpoint.chk"
 B after Tr=     0.015803    0.006279   -0.003320
         Rot=    0.999984    0.001536   -0.001184   -0.005251 Ang=   0.64 deg.
 ExpMin= 9.52D-02 ExpMax= 2.70D+04 ExpMxC= 9.22D+02 IAcc=2 IRadAn=         4 AccDes= 0.00D+00
 Harris functional with IExCor=  402 and IRadAn=       4 diagonalized for initial guess.
 HarFok:  IExCor=  402 AccDes= 0.00D+00 IRadAn=         4 IDoV= 1 UseB2=F ITyADJ=14
 ICtDFT=  3500011 ScaDFX=  1.000000  1.000000  1.000000  1.000000
 FoFCou: FMM=F IPFlag=           0 FMFlag=      100000 FMFlg1=           0
         NFxFlg=           0 DoJE=T BraDBF=F KetDBF=T FulRan=T
         wScrn=  0.000000 ICntrl=       500 IOpCl=  0 I1Cent=   200000004 NGrid=           0
         NMat0=    1 NMatS0=      1 NMatT0=    0 NMatD0=    1 NMtDS0=    0 NMtDT0=    0
 Symmetry not used in FoFCou.
 Requested convergence on RMS density matrix=1.00D-08 within 128 cycles.
 Requested convergence on MAX density matrix=1.00D-06.
 Requested convergence on             energy=1.00D-06.
 No special actions if energy rises.
 Integral accuracy reduced to 1.0D-05 until final iterations.
 Initial convergence to 1.0D-05 achieved.  Increase integral accuracy.
 SCF Done:  E(RB3LYP) =  -289.051883060     A.U. after   10 cycles
            NFock= 10  Conv=0.63D-08     -V/T= 2.0051
   1 Symmetry operations used in ECPInt.
 ECPInt:  NShTT=    6105 NPrTT=   17556 LenC2=    6069 LenP2D=   14641.
 LDataN:  DoStor=T MaxTD1= 7 Len=  274
 Calling FoFJK, ICntrl=      2127 FMM=F ISym2X=0 I1Cent= 0 IOpClX= 0 NMat=1 NMatS=1 NMatT=0.
 -------------------------------------------------------------------
 Center     Atomic                   Forces (Hartrees/Bohr)
 Number     Number              X              Y              Z
 -------------------------------------------------------------------
      1        7           0.001532688   -0.000443318    0.000106388
      2        6          -0.000922154    0.000169283    0.000038221
      3        8           0.000063800    0.000568766   -0.000683871
      4        6          -0.000063052   -0.000180370    0.000001323
      5        6          -0.000254527    0.000118915    0.000059630
      6        6           0.000097284   -0.000187772    0.000248780
      7        1          -0.000004367   -0.000064622    0.000241444
      8        1          -0.000076098    0.000164076    0.000129106
      9        1          -0.000021043   -0.000049907   -0.000027725
     10        1           0.000040134   -0.000077982   -0.000043293
     11        1          -0.000029995   -0.000047691    0.000048872
     12        1           0.000099105    0.000007738    0.000138224
     13        1           0.000051464   -0.000026909   -0.000028998
     14        1          -0.000006947    0.000053430   -0.000053464
     15        1          -0.000266260    0.000006923   -0.000099354
     16        1          -0.000067507   -0.000037086   -0.000128192
     17        1          -0.000172524    0.000026527    0.000052908
 -------------------------------------------------------------------
 Cartesian Forces:  Max     0.001532688 RMS     0.000305647
 -----------------------------------------------------------------------------------------------
                       Internal Coordinate Forces (Hartree/Bohr or radian)
  Cent   Atom   N1       Length/X         N2         Alpha/Y        N3         Beta/Z          J
 -----------------------------------------------------------------------------------------------
      1  N 
      2  C        1   0.000483(     1)
      3  O        1   0.000293(     2)      2   0.001594(    17)
      4  C        1  -0.000253(     3)      2   0.000275(    18)      3  -0.000586(    32)     0
      5  C        1  -0.000109(     4)      2  -0.000355(    19)      3   0.000401(    33)     0
      6  C        2  -0.000057(     5)      1   0.000153(    20)      3  -0.001557(    34)     0
      7  H        2  -0.000001(     6)      1   0.000512(    21)      6  -0.000045(    35)     0
      8  H        2   0.000108(     7)      1   0.000207(    22)      6  -0.000326(    36)     0
      9  H        4   0.000028(     8)      1  -0.000066(    23)      2   0.000216(    37)     0
     10  H        4  -0.000054(     9)      1  -0.000115(    24)      9   0.000116(    38)     0
     11  H        4   0.000043(    10)      1  -0.000125(    25)      9   0.000015(    39)     0
     12  H        5   0.000082(    11)      1  -0.000276(    26)      2   0.000380(    40)     0
     13  H        5   0.000028(    12)      1  -0.000003(    27)     12   0.000115(    41)     0
     14  H        5  -0.000014(    13)      1  -0.000034(    28)     12   0.000140(    42)     0
     15  H        6  -0.000191(    14)      2  -0.000280(    29)      1   0.000128(    43)     0
     16  H        6   0.000075(    15)      2  -0.000197(    30)     15   0.000167(    44)     0
     17  H        6   0.000032(    16)      2  -0.000230(    31)     15   0.000274(    45)     0
 -----------------------------------------------------------------------------------------------
 Internal  Forces:  Max     0.001593729 RMS     0.000400317

 GradGradGradGradGradGradGradGradGradGradGradGradGradGradGradGradGradGrad
 Berny optimization.
 Search for a local minimum.
 Step number   2 out of a maximum of   55
 All quantities printed in internal units (Hartrees-Bohrs-Radians)
 Update second derivatives using D2CorN and points    2    1
 DE=  7.02D-06 DEPred=-3.45D-05 R=-2.03D-01
 Trust test=-2.03D-01 RLast= 4.45D-02 DXMaxT set to 5.00D-02
 ITU= -1  0
     Eigenvalues ---    0.02788   0.02912   0.03076   0.04224   0.07432
     Eigenvalues ---    0.08942   0.09045   0.10369   0.12470   0.13264
     Eigenvalues ---    0.13796   0.13843   0.17827   0.22745   0.23116
     Eigenvalues ---    0.23231   0.24795   0.25389   0.30070   0.30944
     Eigenvalues ---    0.31613   0.31718   0.32468   0.32654   0.33025
     Eigenvalues ---    0.34422   0.34558   0.34580   0.34667   0.34726
     Eigenvalues ---    0.34941   0.34990   0.35271   0.35289   0.35292
     Eigenvalues ---    0.35471   0.35763   0.37730   0.39396   0.40327
     Eigenvalues ---    0.40341   0.42882   0.53111   0.53383   0.61435
 RFO step:  Lambda=-1.70550233D-05 EMin= 2.78759238D-02
 Quartic linear search produced a step of -0.54306.
 Variable       Old X    -DE/DX   Delta X   Delta X   Delta X     New X
                                 (Linear)    (Quad)   (Total)
    R2        2.87776   0.00048   0.00105  -0.00052   0.00053   2.87830
    R3        2.56555   0.00029   0.00143  -0.00126   0.00017   2.56571
    R4        2.83047  -0.00025  -0.00034   0.00008  -0.00026   2.83021
    R5        2.83386  -0.00011  -0.00045   0.00034  -0.00011   2.83375
    R6        2.86137  -0.00006  -0.00008   0.00001  -0.00007   2.86130
    R7        2.05711  -0.00000  -0.00010   0.00011   0.00001   2.05712
    R8        2.06716   0.00011  -0.00055   0.00068   0.00012   2.06728
    R9        2.05208   0.00003   0.00016  -0.00014   0.00002   2.05210
   R10        2.05215  -0.00005  -0.00006   0.00001  -0.00005   2.05210
   R11        2.06466   0.00004  -0.00038   0.00043   0.00005   2.06472
   R12        2.04924   0.00008  -0.00004   0.00011   0.00008   2.04931
   R13        2.05178   0.00003   0.00017  -0.00014   0.00002   2.05181
   R14        2.06430  -0.00001  -0.00037   0.00036  -0.00000   2.06430
   R15        2.05800  -0.00019  -0.00012  -0.00007  -0.00019   2.05781
   R16        2.06140   0.00007  -0.00010   0.00017   0.00007   2.06147
   R17        2.06299   0.00003  -0.00045   0.00049   0.00004   2.06304
    A3        1.91851   0.00159   0.00580  -0.00411   0.00169   1.92020
    A4        1.89008   0.00027  -0.00254   0.00228  -0.00026   1.88982
    A5        1.93316  -0.00035  -0.00222   0.00179  -0.00043   1.93274
    A6        1.96518   0.00015   0.00138  -0.00147  -0.00009   1.96509
    A7        1.81378   0.00051   0.00050   0.00022   0.00072   1.81450
    A8        1.89329   0.00021  -0.00098   0.00118   0.00020   1.89349
    A9        1.86769  -0.00007  -0.00004  -0.00003  -0.00008   1.86762
   A10        1.86791  -0.00012  -0.00014  -0.00002  -0.00016   1.86775
   A11        1.94425  -0.00013   0.00001  -0.00011  -0.00010   1.94415
   A12        1.87847  -0.00028  -0.00035  -0.00008  -0.00043   1.87804
   A13        1.86296  -0.00000   0.00004   0.00002   0.00006   1.86302
   A14        1.94393  -0.00003  -0.00010   0.00012   0.00002   1.94395
   A15        1.90104  -0.00028   0.00130  -0.00141  -0.00011   1.90093
   A16        1.96715  -0.00020  -0.00041  -0.00070  -0.00111   1.96604
   A17        1.90524  -0.00023  -0.00072   0.00105   0.00033   1.90557
    D4       -2.08379  -0.00059  -0.00123   0.00171   0.00048  -2.08331
    D5        2.11687   0.00040   0.00307  -0.00130   0.00177   2.11864
    D6       -0.92734  -0.00156  -0.02199  -0.01445  -0.03644  -0.96378
    D7        2.07814  -0.00004   0.00180  -0.00126   0.00055   2.07869
    D8       -2.18140  -0.00033   0.00095  -0.00061   0.00034  -2.18107
    D9        3.12023   0.00022   0.00340  -0.00153   0.00188   3.12211
   D10       -2.04182   0.00012  -0.00083   0.00100   0.00017  -2.04165
   D11        2.11969   0.00002   0.00015  -0.00007   0.00008   2.11977
   D12       -1.12989   0.00038  -0.00257   0.00591   0.00335  -1.12654
   D13       -2.03948   0.00012  -0.00095   0.00099   0.00003  -2.03945
   D14        2.12914   0.00014  -0.00113   0.00107  -0.00006   2.12908
   D15        0.83849   0.00013   0.00231  -0.00403  -0.00172   0.83677
   D16       -2.11915   0.00017  -0.00161   0.00254   0.00093  -2.11822
   D17        2.07748   0.00027   0.00033   0.00088   0.00120   2.07869
         Item               Value     Threshold  Converged?
 Maximum Force            0.001594     0.000450     NO 
 RMS     Force            0.000400     0.000300     NO 
 Maximum Displacement     0.036440     0.001800     NO 
 RMS     Displacement     0.005492     0.001200     NO 
 Predicted change in Energy=-2.478951D-05
 GradGradGradGradGradGradGradGradGradGradGradGradGradGradGradGradGradGrad

 ---------------------------------------------------------------------------------------------------
                            Z-MATRIX (ANGSTROMS AND DEGREES)
   CD    Cent   Atom    N1       Length/X        N2       Alpha/Y        N3        Beta/Z          J
 ---------------------------------------------------------------------------------------------------
      1      1  N 
      2      2  C        1   1.523128(     1)
      3      3  O        1   1.357716(     2)      2  110.019(    17)
      4      4  C        1   1.497684(     3)      2  108.279(    18)      3 -119.365(    32)      0
      5      5  C        1   1.499558(     4)      2  110.738(    19)      3  121.389(    33)      0
      6      6  C        2   1.514137(     5)      1  112.591(    20)      3  -55.220(    34)      0
      7      7  H        2   1.088578(     6)      1  103.963(    21)      6  119.100(    35)      0
      8      8  H        2   1.093959(     7)      1  108.489(    22)      6 -124.966(    36)      0
      9      9  H        4   1.085924(     8)      1  107.006(    23)      2  178.884(    37)      0
     10     10  H        4   1.085925(     9)      1  107.014(    24)      9 -116.978(    38)      0
     11     11  H        4   1.092601(    10)      1  111.392(    25)      9  121.454(    39)      0
     12     12  H        5   1.084450(    11)      1  107.604(    26)      2  -64.546(    40)      0
     13     13  H        5   1.085770(    12)      1  106.743(    27)     12 -116.852(    41)      0
     14     14  H        5   1.092379(    13)      1  111.380(    28)     12  121.987(    42)      0
     15     15  H        6   1.088947(    14)      2  108.915(    29)      1   47.944(    43)      0
     16     16  H        6   1.090883(    15)      2  112.646(    30)     15 -121.365(    44)      0
     17     17  H        6   1.091713(    16)      2  109.181(    31)     15  119.100(    45)      0
 ---------------------------------------------------------------------------------------------------
                         Z-Matrix orientation:                         
 ---------------------------------------------------------------------
 Center     Atomic      Atomic             Coordinates (Angstroms)
 Number     Number       Type             X           Y           Z
 ---------------------------------------------------------------------
      1          7           0        0.000000    0.000000    0.000000
      2          6           0        0.000000    0.000000    1.523128
      3          8           0        1.275679    0.000000   -0.464798
      4          6           0       -0.697358    1.239393   -0.469737
      5          6           0       -0.730436   -1.197164   -0.530977
      6          6           0        0.797424   -1.148212    2.104792
      7          1           0        0.465092    0.948522    1.785804
      8          1           0       -1.037489    0.003373    1.870046
      9          1           0       -0.667935    1.228351   -1.555206
     10          1           0       -0.122168    2.085212   -0.105073
     11          1           0       -1.727156    1.279090   -0.106808
     12          1           0       -0.175386   -2.079404   -0.231636
     13          1           0       -0.712750   -1.119482   -1.613820
     14          1           0       -1.757243   -1.234014   -0.160032
     15          1           0        1.762770   -1.197339    1.603296
     16          1           0        0.289035   -2.107785    2.000930
     17          1           0        0.956016   -0.971284    3.170335
 ---------------------------------------------------------------------
                    Distance matrix (angstroms):
                    1          2          3          4          5
     1  N    0.000000
     2  C    1.523128   0.000000
     3  O    1.357716   2.362035   0.000000
     4  C    1.497684   2.448247   2.330020   0.000000
     5  C    1.499558   2.487184   2.337109   2.437551   0.000000
     6  C    2.526743   1.514137   2.854806   3.816181   3.046971
     7  H    2.074873   1.088578   2.573316   2.554086   3.376496
     8  H    2.138566   1.093959   3.286678   2.667961   2.701940
     9  H    2.091327   3.380995   2.544694   1.085924   2.633643
    10  H    2.091429   2.648410   2.536038   1.085925   3.365320
    11  H    2.151871   2.697375   3.283481   1.092601   2.702815
    12  H    2.099604   2.726514   2.546345   3.368021   1.084450
    13  H    2.089418   3.406127   2.554866   2.621728   1.085770
    14  H    2.153208   2.728319   3.288509   2.708693   1.092379
    15  H    2.666747   2.132465   2.438830   4.035760   3.281950
    16  H    2.920619   2.180502   3.390580   4.275601   2.877342
    17  H    3.450853   2.137908   3.776212   4.568464   4.073678
                    6          7          8          9         10
     6  C    0.000000
     7  H    2.146740   0.000000
     8  H    2.179028   1.777119   0.000000
     9  H    4.603359   3.538983   3.656431   0.000000
    10  H    4.022958   2.283058   3.012136   1.770582   0.000000
    11  H    4.142038   2.914996   2.451743   1.795099   1.796057
    12  H    2.696734   3.694403   3.081923   3.596621   4.166879
    13  H    4.013668   4.149867   3.674722   2.348992   3.590985
    14  H    3.415131   3.672672   2.484027   3.032547   3.700508
    15  H    1.088947   2.514358   3.058483   4.665665   4.152910
    16  H    1.090883   3.068923   2.496755   4.969073   4.710155
    17  H    1.091713   2.417352   2.571920   5.459519   4.607923
                   11         12         13         14         15
    11  H    0.000000
    12  H    3.701764   0.000000
    13  H    3.008863   1.766535   0.000000
    14  H    2.513848   1.795016   1.793762   0.000000
    15  H    4.608334   2.810954   4.060061   3.937152   0.000000
    16  H    4.469732   2.280535   3.879012   3.101691   1.777335
    17  H    4.796172   3.752520   5.069012   4.303737   1.776954
                   16         17
    16  H    0.000000
    17  H    1.761819   0.000000
 Symmetry turned off by external request.
 Stoichiometry    C4H11NO
 Framework group  C1[X(C4H11NO)]
 Deg. of freedom    45
 Full point group                 C1      NOp   1
 Rotational constants (GHZ):           4.9401797           2.7717890           2.6767996
 Standard basis: def2TZVP (5D, 7F)
 The following finite field(s) will be applied:
 An electric field of             -0.0012 -0.0000  0.0022
   252 basis functions,   394 primitive gaussians,   282 cartesian basis functions
    25 alpha electrons       25 beta electrons
       nuclear repulsion energy       274.9154641518 Hartrees.
 NAtoms=   17 NActive=   17 NUniq=   17 SFac= 1.00D+00 NAtFMM=   60 NAOKFM=F Big=F
 Integral buffers will be    131072 words long.
 Raffenetti 2 integral format.
 Two-electron integral symmetry is turned off.
 One-electron integrals computed using PRISM.
   1 Symmetry operations used in ECPInt.
 ECPInt:  NShTT=    6105 NPrTT=   17556 LenC2=    6069 LenP2D=   14640.
 LDataN:  DoStor=T MaxTD1= 6 Len=  172
 NBasis=   252 RedAO= T EigKep=  3.08D-04  NBF=   252
 NBsUse=   252 1.00D-06 EigRej= -1.00D+00 NBFU=   252
 The nuclear repulsion energy is now       274.9857032943 hartrees.
 Lowest energy guess from the checkpoint file:  "checkpoint.chk"
 B after Tr=     0.007715    0.000104   -0.002899
         Rot=    0.999999   -0.000088    0.001158   -0.000743 Ang=  -0.16 deg.
 B after Tr=    -0.008166   -0.006060    0.000319
         Rot=    0.999986   -0.001617    0.002332    0.004514 Ang=  -0.61 deg.
 Requested convergence on RMS density matrix=1.00D-08 within 128 cycles.
 Requested convergence on MAX density matrix=1.00D-06.
 Requested convergence on             energy=1.00D-06.
 No special actions if energy rises.
 Integral accuracy reduced to 1.0D-05 until final iterations.
 Initial convergence to 1.0D-05 achieved.  Increase integral accuracy.
 SCF Done:  E(RB3LYP) =  -289.051912924     A.U. after    9 cycles
            NFock=  9  Conv=0.66D-08     -V/T= 2.0051
   1 Symmetry operations used in ECPInt.
 ECPInt:  NShTT=    6105 NPrTT=   17556 LenC2=    6069 LenP2D=   14640.
 LDataN:  DoStor=T MaxTD1= 7 Len=  274
 Calling FoFJK, ICntrl=      2127 FMM=F ISym2X=0 I1Cent= 0 IOpClX= 0 NMat=1 NMatS=1 NMatT=0.
 -------------------------------------------------------------------
 Center     Atomic                   Forces (Hartrees/Bohr)
 Number     Number              X              Y              Z
 -------------------------------------------------------------------
      1        7           0.001107930   -0.000004990    0.000129198
      2        6          -0.000918621    0.000124541   -0.000158214
      3        8           0.000112910    0.000033841   -0.000092996
      4        6          -0.000080784   -0.000047725    0.000075154
      5        6          -0.000103452    0.000015508    0.000023928
      6        6          -0.000068909   -0.000165942    0.000182247
      7        1          -0.000054636    0.000017069   -0.000131516
      8        1          -0.000078547   -0.000055928    0.000077090
      9        1           0.000009670   -0.000013973   -0.000009218
     10        1           0.000035347   -0.000031465    0.000007184
     11        1          -0.000009255   -0.000018105   -0.000016340
     12        1          -0.000022628    0.000032545   -0.000062063
     13        1           0.000036554    0.000048502   -0.000001273
     14        1          -0.000001792    0.000008610    0.000009285
     15        1           0.000030628    0.000062312   -0.000015976
     16        1          -0.000006261   -0.000003319    0.000055116
     17        1           0.000011844   -0.000001479   -0.000071605
 -------------------------------------------------------------------
 Cartesian Forces:  Max     0.001107930 RMS     0.000212571
 -----------------------------------------------------------------------------------------------
                       Internal Coordinate Forces (Hartree/Bohr or radian)
  Cent   Atom   N1       Length/X         N2         Alpha/Y        N3         Beta/Z          J
 -----------------------------------------------------------------------------------------------
      1  N 
      2  C        1  -0.000063(     1)
      3  O        1   0.000138(     2)      2   0.000125(    17)
      4  C        1  -0.000089(     3)      2  -0.000080(    18)      3  -0.000197(    32)     0
      5  C        1  -0.000029(     4)      2   0.000277(    19)      3   0.000376(    33)     0
      6  C        2   0.000123(     5)      1   0.000312(    20)      3   0.000093(    34)     0
      7  H        2  -0.000040(     6)      1  -0.000258(    21)      6   0.000113(    35)     0
      8  H        2   0.000099(     7)      1   0.000100(    22)      6   0.000110(    36)     0
      9  H        4   0.000010(     8)      1  -0.000034(    23)      2  -0.000024(    37)     0
     10  H        4  -0.000003(     9)      1  -0.000094(    24)      9   0.000027(    38)     0
     11  H        4   0.000003(    10)      1  -0.000014(    25)      9  -0.000048(    39)     0
     12  H        5  -0.000055(    11)      1   0.000051(    26)      2  -0.000073(    40)     0
     13  H        5   0.000005(    12)      1  -0.000123(    27)     12   0.000013(    41)     0
     14  H        5   0.000005(    13)      1  -0.000024(    28)     12  -0.000004(    42)     0
     15  H        6   0.000032(    14)      2  -0.000103(    29)      1  -0.000068(    43)     0
     16  H        6   0.000001(    15)      2   0.000045(    30)     15  -0.000097(    44)     0
     17  H        6  -0.000068(    16)      2   0.000005(    31)     15  -0.000047(    45)     0
 -----------------------------------------------------------------------------------------------
 Internal  Forces:  Max     0.000375916 RMS     0.000117334

 GradGradGradGradGradGradGradGradGradGradGradGradGradGradGradGradGradGrad
 Berny optimization.
 Search for a local minimum.
 Step number   3 out of a maximum of   55
 All quantities printed in internal units (Hartrees-Bohrs-Radians)
 Update second derivatives using D2CorN and points    2    1    3
 DE= -2.28D-05 DEPred=-2.48D-05 R= 9.22D-01
 TightC=F SS=  1.41D+00  RLast= 1.85D-02 DXNew= 8.4090D-02 5.5390D-02
 Trust test= 9.22D-01 RLast= 1.85D-02 DXMaxT set to 5.54D-02
 ITU=  1 -1  0
     Eigenvalues ---    0.02512   0.02689   0.03113   0.04142   0.07465
     Eigenvalues ---    0.08871   0.09062   0.10422   0.12580   0.13172
     Eigenvalues ---    0.13811   0.13840   0.17989   0.22785   0.23185
     Eigenvalues ---    0.23248   0.24838   0.26487   0.30112   0.30948
     Eigenvalues ---    0.31613   0.31726   0.32475   0.32694   0.33029
     Eigenvalues ---    0.34379   0.34556   0.34580   0.34684   0.34726
     Eigenvalues ---    0.34944   0.34994   0.35272   0.35289   0.35293
     Eigenvalues ---    0.35474   0.35867   0.37754   0.39420   0.40307
     Eigenvalues ---    0.40332   0.42950   0.53059   0.53704   0.61340
 RFO step:  Lambda=-2.26643753D-06 EMin= 2.51180081D-02
 Quartic linear search produced a step of -0.06678.
 Variable       Old X    -DE/DX   Delta X   Delta X   Delta X     New X
                                 (Linear)    (Quad)   (Total)
    R2        2.87830  -0.00006   0.00009  -0.00030  -0.00021   2.87809
    R3        2.56571   0.00014   0.00016   0.00007   0.00023   2.56594
    R4        2.83021  -0.00009  -0.00002  -0.00023  -0.00025   2.82996
    R5        2.83375  -0.00003  -0.00005  -0.00003  -0.00008   2.83368
    R6        2.86130   0.00012  -0.00001   0.00038   0.00037   2.86167
    R7        2.05712  -0.00004  -0.00001  -0.00009  -0.00010   2.05701
    R8        2.06728   0.00010  -0.00008   0.00035   0.00028   2.06756
    R9        2.05210   0.00001   0.00002   0.00001   0.00002   2.05212
   R10        2.05210  -0.00000  -0.00000  -0.00001  -0.00001   2.05209
   R11        2.06472   0.00000  -0.00005   0.00006   0.00001   2.06473
   R12        2.04931  -0.00006  -0.00001  -0.00013  -0.00014   2.04917
   R13        2.05181   0.00001   0.00002  -0.00001   0.00001   2.05182
   R14        2.06430   0.00000  -0.00004   0.00006   0.00002   2.06431
   R15        2.05781   0.00003  -0.00000   0.00009   0.00009   2.05790
   R16        2.06147   0.00000  -0.00002   0.00002   0.00000   2.06147
   R17        2.06304  -0.00007  -0.00006  -0.00012  -0.00018   2.06286
    A3        1.92020   0.00013   0.00060  -0.00001   0.00059   1.92079
    A4        1.88982  -0.00008  -0.00030  -0.00060  -0.00089   1.88893
    A5        1.93274   0.00028  -0.00024   0.00112   0.00087   1.93361
    A6        1.96509   0.00031   0.00018   0.00091   0.00109   1.96618
    A7        1.81450  -0.00026   0.00001  -0.00145  -0.00143   1.81307
    A8        1.89349   0.00010  -0.00013   0.00053   0.00040   1.89388
    A9        1.86762  -0.00003  -0.00000  -0.00017  -0.00017   1.86745
   A10        1.86775  -0.00009  -0.00001  -0.00035  -0.00036   1.86739
   A11        1.94415  -0.00001   0.00001   0.00009   0.00009   1.94425
   A12        1.87804   0.00005  -0.00001   0.00037   0.00036   1.87840
   A13        1.86302  -0.00012   0.00000  -0.00066  -0.00066   1.86236
   A14        1.94395  -0.00002  -0.00001   0.00004   0.00003   1.94398
   A15        1.90093  -0.00010   0.00017  -0.00068  -0.00052   1.90041
   A16        1.96604   0.00005   0.00002   0.00042   0.00044   1.96648
   A17        1.90557   0.00001  -0.00011   0.00002  -0.00009   1.90548
    D4       -2.08331  -0.00020  -0.00018   0.00059   0.00040  -2.08290
    D5        2.11864   0.00038   0.00026   0.00144   0.00170   2.12034
    D6       -0.96378   0.00009  -0.00027   0.00110   0.00083  -0.96294
    D7        2.07869   0.00011   0.00019   0.00015   0.00033   2.07902
    D8       -2.18107   0.00011   0.00009  -0.00031  -0.00021  -2.18128
    D9        3.12211  -0.00002   0.00029  -0.00108  -0.00078   3.12133
   D10       -2.04165   0.00003  -0.00011   0.00033   0.00022  -2.04143
   D11        2.11977  -0.00005   0.00001  -0.00001   0.00000   2.11977
   D12       -1.12654  -0.00007  -0.00054  -0.00183  -0.00237  -1.12891
   D13       -2.03945   0.00001  -0.00012   0.00041   0.00029  -2.03916
   D14        2.12908  -0.00000  -0.00014   0.00065   0.00051   2.12960
   D15        0.83677  -0.00007   0.00040  -0.00260  -0.00220   0.83457
   D16       -2.11822  -0.00010  -0.00026  -0.00013  -0.00039  -2.11862
   D17        2.07869  -0.00005  -0.00004  -0.00051  -0.00055   2.07814
         Item               Value     Threshold  Converged?
 Maximum Force            0.000376     0.000450     YES
 RMS     Force            0.000117     0.000300     YES
 Maximum Displacement     0.002374     0.001800     NO 
 RMS     Displacement     0.000711     0.001200     YES
 Predicted change in Energy=-1.327334D-06
 GradGradGradGradGradGradGradGradGradGradGradGradGradGradGradGradGradGrad

 ---------------------------------------------------------------------------------------------------
                            Z-MATRIX (ANGSTROMS AND DEGREES)
   CD    Cent   Atom    N1       Length/X        N2       Alpha/Y        N3        Beta/Z          J
 ---------------------------------------------------------------------------------------------------
      1      1  N 
      2      2  C        1   1.523019(     1)
      3      3  O        1   1.357838(     2)      2  110.053(    17)
      4      4  C        1   1.497550(     3)      2  108.228(    18)      3 -119.342(    32)      0
      5      5  C        1   1.499517(     4)      2  110.788(    19)      3  121.486(    33)      0
      6      6  C        2   1.514333(     5)      1  112.654(    20)      3  -55.173(    34)      0
      7      7  H        2   1.088523(     6)      1  103.881(    21)      6  119.119(    35)      0
      8      8  H        2   1.094105(     7)      1  108.512(    22)      6 -124.978(    36)      0
      9      9  H        4   1.085937(     8)      1  106.997(    23)      2  178.839(    37)      0
     10     10  H        4   1.085920(     9)      1  106.994(    24)      9 -116.965(    38)      0
     11     11  H        4   1.092608(    10)      1  111.397(    25)      9  121.454(    39)      0
     12     12  H        5   1.084375(    11)      1  107.624(    26)      2  -64.682(    40)      0
     13     13  H        5   1.085776(    12)      1  106.705(    27)     12 -116.835(    41)      0
     14     14  H        5   1.092387(    13)      1  111.382(    28)     12  122.017(    42)      0
     15     15  H        6   1.088992(    14)      2  108.886(    29)      1   47.818(    43)      0
     16     16  H        6   1.090884(    15)      2  112.671(    30)     15 -121.388(    44)      0
     17     17  H        6   1.091618(    16)      2  109.176(    31)     15  119.069(    45)      0
 ---------------------------------------------------------------------------------------------------
                         Z-Matrix orientation:                         
 ---------------------------------------------------------------------
 Center     Atomic      Atomic             Coordinates (Angstroms)
 Number     Number       Type             X           Y           Z
 ---------------------------------------------------------------------
      1          7           0        0.000000    0.000000    0.000000
      2          6           0        0.000000    0.000000    1.523019
      3          8           0        1.275520    0.000000   -0.465590
      4          6           0       -0.697000    1.239928   -0.468427
      5          6           0       -0.732207   -1.195492   -0.532186
      6          6           0        0.798120   -1.147176    2.106283
      7          1           0        0.464130    0.949351    1.784167
      8          1           0       -1.037492    0.002731    1.870393
      9          1           0       -0.667260    1.229960   -1.553911
     10          1           0       -0.121380    2.084990   -0.102703
     11          1           0       -1.726887    1.279466   -0.105714
     12          1           0       -0.177786   -2.078938   -0.235521
     13          1           0       -0.715387   -1.115308   -1.614867
     14          1           0       -1.758684   -1.231918   -0.160259
     15          1           0        1.762839   -1.196908    1.603543
     16          1           0        0.289803   -2.107115    2.005492
     17          1           0        0.958243   -0.967721    3.171077
 ---------------------------------------------------------------------
                    Distance matrix (angstroms):
                    1          2          3          4          5
     1  N    0.000000
     2  C    1.523019   0.000000
     3  O    1.357838   2.362523   0.000000
     4  C    1.497550   2.447262   2.329864   0.000000
     5  C    1.499517   2.487810   2.337649   2.436509   0.000000
     6  C    2.527733   1.514333   2.856300   3.816121   3.050533
     7  H    2.073629   1.088523   2.573135   2.550851   3.375954
     8  H    2.138871   1.094105   3.287377   2.667709   2.702096
     9  H    2.091094   3.380168   2.543941   1.085937   2.632671
    10  H    2.091043   2.646675   2.535783   1.085920   3.364391
    11  H    2.151824   2.696654   3.283442   1.092608   2.701237
    12  H    2.099776   2.728746   2.546961   3.367298   1.084375
    13  H    2.088896   3.406174   2.555085   2.619504   1.085776
    14  H    2.153200   2.728372   3.288957   2.707796   1.092387
    15  H    2.666747   2.132293   2.439545   4.035101   3.284295
    16  H    2.923340   2.180986   3.393791   4.277471   2.883639
    17  H    3.451151   2.137945   3.776572   4.567224   4.077213
                    6          7          8          9         10
     6  C    0.000000
     7  H    2.147261   0.000000
     8  H    2.178853   1.777187   0.000000
     9  H    4.603817   3.535753   3.656367   0.000000
    10  H    4.021441   2.278766   3.011340   1.770612   0.000000
    11  H    4.142122   2.912247   2.451595   1.795143   1.796255
    12  H    2.702705   3.696177   3.083393   3.595350   4.166427
    13  H    4.017297   4.148194   3.674343   2.346554   3.589065
    14  H    3.417841   3.671461   2.483550   3.032213   3.699453
    15  H    1.088992   2.515094   3.058135   4.665252   4.151193
    16  H    1.090884   3.069423   2.496279   4.972061   4.710339
    17  H    1.091618   2.417195   2.572258   5.458715   4.604591
                   11         12         13         14         15
    11  H    0.000000
    12  H    3.700735   0.000000
    13  H    3.005930   1.766407   0.000000
    14  H    2.512177   1.795089   1.793864   0.000000
    15  H    4.607838   2.815343   4.062810   3.938698   0.000000
    16  H    4.471371   2.289448   3.886012   3.106887   1.777603
    17  H    4.795532   3.759026   5.072286   4.306889   1.776813
                   16         17
    16  H    0.000000
    17  H    1.761709   0.000000
 Symmetry turned off by external request.
 Stoichiometry    C4H11NO
 Framework group  C1[X(C4H11NO)]
 Deg. of freedom    45
 Full point group                 C1      NOp   1
 Rotational constants (GHZ):           4.9392680           2.7704421           2.6760214
 Standard basis: def2TZVP (5D, 7F)
 The following finite field(s) will be applied:
 An electric field of             -0.0012 -0.0000  0.0022
   252 basis functions,   394 primitive gaussians,   282 cartesian basis functions
    25 alpha electrons       25 beta electrons
       nuclear repulsion energy       274.8946381645 Hartrees.
 NAtoms=   17 NActive=   17 NUniq=   17 SFac= 1.00D+00 NAtFMM=   60 NAOKFM=F Big=F
 Integral buffers will be    131072 words long.
 Raffenetti 2 integral format.
 Two-electron integral symmetry is turned off.
 One-electron integrals computed using PRISM.
   1 Symmetry operations used in ECPInt.
 ECPInt:  NShTT=    6105 NPrTT=   17556 LenC2=    6069 LenP2D=   14640.
 LDataN:  DoStor=T MaxTD1= 6 Len=  172
 NBasis=   252 RedAO= T EigKep=  3.09D-04  NBF=   252
 NBsUse=   252 1.00D-06 EigRej= -1.00D+00 NBFU=   252
 The nuclear repulsion energy is now       274.9649214108 hartrees.
 Initial guess from the checkpoint file:  "checkpoint.chk"
 B after Tr=    -0.000414    0.001343    0.000317
         Rot=    1.000000   -0.000034   -0.000176    0.000197 Ang=  -0.03 deg.
 Requested convergence on RMS density matrix=1.00D-08 within 128 cycles.
 Requested convergence on MAX density matrix=1.00D-06.
 Requested convergence on             energy=1.00D-06.
 No special actions if energy rises.
 SCF Done:  E(RB3LYP) =  -289.051913750     A.U. after    7 cycles
            NFock=  7  Conv=0.43D-08     -V/T= 2.0051
   1 Symmetry operations used in ECPInt.
 ECPInt:  NShTT=    6105 NPrTT=   17556 LenC2=    6069 LenP2D=   14640.
 LDataN:  DoStor=T MaxTD1= 7 Len=  274
 Calling FoFJK, ICntrl=      2127 FMM=F ISym2X=0 I1Cent= 0 IOpClX= 0 NMat=1 NMatS=1 NMatT=0.
 -------------------------------------------------------------------
 Center     Atomic                   Forces (Hartrees/Bohr)
 Number     Number              X              Y              Z
 -------------------------------------------------------------------
      1        7           0.000980134    0.000001588    0.000055743
      2        6          -0.000951743    0.000055409   -0.000039795
      3        8          -0.000009187   -0.000050105    0.000030145
      4        6          -0.000034409    0.000055478    0.000004339
      5        6          -0.000005724   -0.000007737    0.000015533
      6        6          -0.000026153   -0.000044964   -0.000035480
      7        1          -0.000004767   -0.000017214    0.000031770
      8        1          -0.000009542   -0.000013542   -0.000014072
      9        1          -0.000001889    0.000007663    0.000000467
     10        1          -0.000008800    0.000013180   -0.000018254
     11        1           0.000008000   -0.000001190   -0.000007675
     12        1           0.000024345   -0.000027131    0.000016622
     13        1           0.000003488   -0.000013681   -0.000006779
     14        1           0.000024655    0.000009812    0.000003371
     15        1           0.000027978    0.000014840    0.000000501
     16        1          -0.000027670    0.000005421   -0.000017951
     17        1           0.000011283    0.000012171   -0.000018487
 -------------------------------------------------------------------
 Cartesian Forces:  Max     0.000980134 RMS     0.000192720
 -----------------------------------------------------------------------------------------------
                       Internal Coordinate Forces (Hartree/Bohr or radian)
  Cent   Atom   N1       Length/X         N2         Alpha/Y        N3         Beta/Z          J
 -----------------------------------------------------------------------------------------------
      1  N 
      2  C        1  -0.000094(     1)
      3  O        1  -0.000019(     2)      2  -0.000065(    17)
      4  C        1   0.000086(     3)      2  -0.000002(    18)      3  -0.000018(    32)     0
      5  C        1  -0.000002(     4)      2  -0.000133(    19)      3  -0.000153(    33)     0
      6  C        2  -0.000026(     5)      1  -0.000198(    20)      3  -0.000056(    34)     0
      7  H        2  -0.000009(     6)      1   0.000072(    21)      6  -0.000007(    35)     0
      8  H        2   0.000005(     7)      1  -0.000034(    22)      6   0.000027(    36)     0
      9  H        4  -0.000001(     8)      1   0.000016(    23)      2   0.000008(    37)     0
     10  H        4  -0.000001(     9)      1   0.000045(    24)      9   0.000020(    38)     0
     11  H        4  -0.000010(    10)      1   0.000003(    25)      9  -0.000008(    39)     0
     12  H        5   0.000039(    11)      1  -0.000017(    26)      2   0.000015(    40)     0
     13  H        5   0.000006(    12)      1   0.000021(    27)     12   0.000020(    41)     0
     14  H        5  -0.000022(    13)      1  -0.000029(    28)     12  -0.000009(    42)     0
     15  H        6   0.000024(    14)      2  -0.000009(    29)      1   0.000007(    43)     0
     16  H        6   0.000010(    15)      2  -0.000066(    30)     15   0.000005(    44)     0
     17  H        6  -0.000014(    16)      2  -0.000012(    31)     15  -0.000038(    45)     0
 -----------------------------------------------------------------------------------------------
 Internal  Forces:  Max     0.000198260 RMS     0.000053073

 GradGradGradGradGradGradGradGradGradGradGradGradGradGradGradGradGradGrad
 Berny optimization.
 Search for a local minimum.
 Step number   4 out of a maximum of   55
 All quantities printed in internal units (Hartrees-Bohrs-Radians)
 Update second derivatives using D2CorN and points    2    1    3    4
 DE= -8.26D-07 DEPred=-1.33D-06 R= 6.23D-01
 TightC=F SS=  1.41D+00  RLast= 4.77D-03 DXNew= 9.3155D-02 1.4316D-02
 Trust test= 6.23D-01 RLast= 4.77D-03 DXMaxT set to 5.54D-02
 ITU=  1  1 -1  0
     Eigenvalues ---    0.02015   0.02602   0.03164   0.04314   0.07581
     Eigenvalues ---    0.08793   0.09070   0.10320   0.13082   0.13582
     Eigenvalues ---    0.13823   0.13999   0.18923   0.22803   0.23173
     Eigenvalues ---    0.23274   0.25253   0.26843   0.29994   0.31010
     Eigenvalues ---    0.31661   0.31727   0.32478   0.32858   0.33019
     Eigenvalues ---    0.34362   0.34557   0.34587   0.34680   0.34726
     Eigenvalues ---    0.34938   0.34992   0.35272   0.35289   0.35294
     Eigenvalues ---    0.35501   0.36049   0.37832   0.39472   0.40280
     Eigenvalues ---    0.40329   0.43304   0.53094   0.54133   0.61511
 RFO step:  Lambda=-1.65875004D-07 EMin= 2.01456624D-02
 Quartic linear search produced a step of -0.26394.
 Variable       Old X    -DE/DX   Delta X   Delta X   Delta X     New X
                                 (Linear)    (Quad)   (Total)
    R2        2.87809  -0.00009   0.00005  -0.00032  -0.00027   2.87782
    R3        2.56594  -0.00002  -0.00006   0.00003  -0.00003   2.56592
    R4        2.82996   0.00009   0.00007   0.00014   0.00021   2.83017
    R5        2.83368  -0.00000   0.00002  -0.00002  -0.00000   2.83367
    R6        2.86167  -0.00003  -0.00010   0.00005  -0.00005   2.86162
    R7        2.05701  -0.00001   0.00003  -0.00005  -0.00002   2.05699
    R8        2.06756   0.00000  -0.00007   0.00008   0.00001   2.06757
    R9        2.05212  -0.00000  -0.00001   0.00001  -0.00000   2.05212
   R10        2.05209  -0.00000   0.00000  -0.00000   0.00000   2.05209
   R11        2.06473  -0.00001  -0.00000  -0.00002  -0.00003   2.06470
   R12        2.04917   0.00004   0.00004   0.00004   0.00008   2.04925
   R13        2.05182   0.00001  -0.00000   0.00002   0.00001   2.05183
   R14        2.06431  -0.00002  -0.00000  -0.00005  -0.00005   2.06426
   R15        2.05790   0.00002  -0.00002   0.00009   0.00006   2.05796
   R16        2.06147   0.00001  -0.00000   0.00002   0.00002   2.06149
   R17        2.06286  -0.00001   0.00005  -0.00009  -0.00004   2.06282
    A3        1.92079  -0.00006  -0.00016  -0.00003  -0.00019   1.92060
    A4        1.88893  -0.00000   0.00024  -0.00004   0.00020   1.88913
    A5        1.93361  -0.00013  -0.00023  -0.00010  -0.00033   1.93327
    A6        1.96618  -0.00020  -0.00029  -0.00025  -0.00054   1.96564
    A7        1.81307   0.00007   0.00038   0.00003   0.00040   1.81347
    A8        1.89388  -0.00003  -0.00010  -0.00001  -0.00011   1.89377
    A9        1.86745   0.00002   0.00004  -0.00004   0.00000   1.86745
   A10        1.86739   0.00004   0.00009   0.00007   0.00016   1.86756
   A11        1.94425   0.00000  -0.00002   0.00002  -0.00001   1.94424
   A12        1.87840  -0.00002  -0.00009   0.00005  -0.00005   1.87835
   A13        1.86236   0.00002   0.00017  -0.00010   0.00008   1.86244
   A14        1.94398  -0.00003  -0.00001  -0.00007  -0.00008   1.94390
   A15        1.90041  -0.00001   0.00014  -0.00013   0.00001   1.90042
   A16        1.96648  -0.00007  -0.00012  -0.00003  -0.00015   1.96633
   A17        1.90548  -0.00001   0.00002  -0.00004  -0.00002   1.90546
    D4       -2.08290  -0.00002  -0.00011  -0.00024  -0.00035  -2.08325
    D5        2.12034  -0.00015  -0.00045  -0.00014  -0.00059   2.11974
    D6       -0.96294  -0.00006  -0.00022  -0.00078  -0.00100  -0.96394
    D7        2.07902  -0.00001  -0.00009   0.00029   0.00021   2.07923
    D8       -2.18128   0.00003   0.00006   0.00046   0.00052  -2.18076
    D9        3.12133   0.00001   0.00021  -0.00008   0.00012   3.12145
   D10       -2.04143   0.00002  -0.00006   0.00008   0.00003  -2.04140
   D11        2.11977  -0.00001  -0.00000  -0.00007  -0.00007   2.11970
   D12       -1.12891   0.00002   0.00063  -0.00078  -0.00015  -1.12907
   D13       -2.03916   0.00002  -0.00008   0.00013   0.00006  -2.03910
   D14        2.12960  -0.00001  -0.00014   0.00010  -0.00004   2.12956
   D15        0.83457   0.00001   0.00058  -0.00023   0.00035   0.83493
   D16       -2.11862   0.00001   0.00010  -0.00022  -0.00011  -2.11873
   D17        2.07814  -0.00004   0.00014  -0.00031  -0.00017   2.07797
         Item               Value     Threshold  Converged?
 Maximum Force            0.000198     0.000450     YES
 RMS     Force            0.000053     0.000300     YES
 Maximum Displacement     0.000996     0.001800     YES
 RMS     Displacement     0.000251     0.001200     YES
 Predicted change in Energy=-2.402678D-07
 Optimization completed.
    -- Stationary point found.
                       ----------------------------
                       !   Optimized Parameters   !
                       ! (Angstroms and Degrees)  !
 ----------------------                            ----------------------
[...]
   zz         0.625042D+02      0.926217D+01      0.103056D+02

 ----------------------------------------------------------------------
 1\1\GINC-BHC0026\Freq\RB3LYP\def2TZVP\C4H11N1O1\DHANAWAY\10-Jun-2022\1
 \\#N Geom=AllCheck Guess=TCheck SCRF=Check GenChk RB3LYP/def2TZVP Freq
 \\int_zmat_initalOpt\\0,1\N\C,1,R2\O,1,R3,2,A3\C,1,R4,2,A4,3,D4,0\C,1,
 R5,2,A5,3,D5,0\C,2,R6,1,A6,3,D6,0\H,2,R7,1,A7,6,D7,0\H,2,R8,1,A8,6,D8,
 0\H,4,R9,1,A9,2,D9,0\H,4,R10,1,A10,9,D10,0\H,4,R11,1,A11,9,D11,0\H,5,R
 12,1,A12,2,D12,0\H,5,R13,1,A13,12,D13,0\H,5,R14,1,A14,12,D14,0\H,6,R15
 ,2,A15,1,D15,0\H,6,R16,2,A16,15,D16,0\H,6,R17,2,A17,15,D17,0\\R2=1.523
 01934\R3=1.35783804\R4=1.49754964\R5=1.49951708\R6=1.51433283\R7=1.088
 52297\R8=1.09410473\R9=1.08593678\R10=1.08592021\R11=1.0926075\R12=1.0
 8437494\R13=1.0857764\R14=1.09238735\R15=1.0889918\R16=1.09088374\R17=
 1.0916185\A3=110.05307537\A4=108.2278052\A5=110.78761993\A6=112.653803
 52\A7=103.8812395\A8=108.51155635\A9=106.99681249\A10=106.99379962\A11
 =111.39723937\A12=107.62418251\A13=106.70547965\A14=111.38186671\A15=1
 08.88574819\A16=112.67112991\A17=109.17598754\D4=-119.34163575\D5=121.
 48636111\D6=-55.17266543\D7=119.11901313\D8=-124.97812772\D9=178.83905
 869\D10=-116.96518992\D11=121.45405656\D12=-64.68204963\D13=-116.83522
 504\D14=122.01682056\D15=47.81758439\D16=-121.38777137\D17=119.0686968
 9\\Version=ES64L-G16RevA.03\HF=-289.0519138\RMSD=3.541e-09\RMSF=1.927e
 -04\ZeroPoint=0.1529823\Thermal=0.1604013\Dipole=-1.5646395,-0.0123673
 ,0.4957168\DipoleDeriv=0.2994814,0.010724,-0.094839,0.0246711,0.02563,
 -0.0052202,-0.1049421,-0.0041786,0.0480267,0.2209379,-0.0258123,0.0302
 954,-0.0249474,0.1181047,-0.0423937,0.0908855,-0.0535067,0.3123061,-0.
 7208339,0.0128222,0.0413542,-0.0096764,-0.5650128,0.0422103,0.0651349,
 0.025697,-0.6405395,0.1939657,-0.0487806,-0.016132,-0.0059598,0.182258
 1,-0.0670355,-0.0554834,-0.0222649,0.096809,0.1825046,0.0535392,-0.000
 2793,0.0001278,0.1392543,0.0643019,-0.0477368,0.0423959,0.0950357,-0.0
 220871,0.0701393,0.0274951,0.0758204,0.0638374,0.0335356,-0.0164085,0.
 071053,-0.0197567,0.0376838,-0.0506114,-0.0306952,-0.0247023,-0.090598
 2,-0.0334014,-0.008072,0.0066793,0.0160543,-0.1692495,0.0437625,0.0769
 637,0.0145182,0.0420878,0.0214128,0.0287758,0.0131139,-0.0534028,0.069
 0289,0.020723,0.0132882,0.016874,0.0605135,-0.037514,-0.029112,0.02064
 4,-0.0522443,0.027302,-0.0672749,-0.0430783,-0.008899,-0.0120208,-0.02
 45596,-0.0332172,-0.0656072,0.0538289,-0.1519203,0.0730029,0.04058,0.0
 099301,0.0044248,0.0404691,0.0842993,0.0100831,0.0378334,0.0272904,0.0
 561354,-0.0288696,0.0117207,-0.0289185,0.0274877,-0.0181932,0.0544838,
 0.0819859,0.0673222,-0.020736,0.0090423,-0.0075736,0.069131,0.0495476,
 -0.0291076,-0.0059078,-0.0501665,-0.1483833,-0.0693924,0.0357265,-0.01
 6407,0.0114491,-0.0384981,0.083042,-0.0156366,0.0364393,0.0079161,0.02
 16164,-0.0012926,-0.007746,0.0550433,-0.007578,0.0683441,-0.039957,0.1
 252694,-0.0016589,-0.0917062,-0.0180257,-0.0512034,-0.1151724,0.010592
 9,-0.0275259,-0.0337769,0.0666024,0.0807,0.0118491,-0.0415336,0.003452
 6,0.0399886,-0.0333573,-0.0506831,-0.0033144,-0.1540813\Polar=63.68226
 76,-1.7087276,63.2655207,2.4795023,-2.9302984,66.5426835\PG=C01 [X(C4H
 11N1O1)]\NImag=0\\0.41784821,-0.00298009,0.51828254,0.03563677,0.00577
 206,0.46986210,-0.07303108,0.00166270,-0.01767436,0.60160730,0.0017885
 2,-0.08958796,-0.00900354,0.03793215,0.57752093,-0.02821304,-0.0013333
 0,-0.09895541,-0.00923887,0.01925673,0.37822784,-0.17915583,0.00162494
 ,0.03032988,-0.02417194,-0.00147536,0.03359979,0.30268581,0.00152047,-
 0.08721545,-0.00249422,0.00092211,0.00332000,0.00126690,-0.00319175,0.
 06839512,0.03197698,-0.00103068,-0.09663313,0.04208066,0.00053486,-0.0
 2032226,-0.08259088,-0.00217364,0.10158863,-0.06792153,0.01092001,-0.0
 1293664,0.00284277,0.00329032,-0.00930536,-0.05273366,0.03025900,0.002
 59480,0.56017736,0.00490851,-0.13381903,0.02389451,0.00141594,-0.00343
 757,0.01090542,0.01884803,0.00348209,-0.00650500,0.08288783,0.48082896
 ,-0.01041477,0.02303513,-0.09705216,-0.01857144,0.03175044,-0.02069423
 ,0.01007236,-0.01079000,0.00664173,-0.02431545,0.05401733,0.60246785,-
 0.06874843,-0.01086763,-0.01413015,0.00271908,-0.00246358,-0.00833319,
 -0.05269387,-0.02880433,0.00186271,0.01233146,0.00844440,0.00429022,0.
 55522533,-0.00334072,-0.13045698,-0.02161332,-0.00053081,-0.00026317,-
 0.00944620,-0.01770260,0.00427718,0.00651519,-0.01051149,-0.03857178,-
 0.00980278,-0.08642626,0.49474189,-0.01080523,-0.02416061,-0.10073200,
 -0.01687732,-0.02978681,-0.01771636,0.00875441,0.01008333,0.00805874,0
 .00391647,0.00684737,0.00465837,-0.03302760,-0.06117106,0.59204417,0.0
 0191029,0.00042350,-0.00892462,-0.11511474,0.04765580,-0.01804288,-0.0
 0133345,0.00063828,0.00016867,0.00042417,-0.00063832,0.00076401,-0.000
 30948,0.00025367,-0.00016316,0.53779446,-0.00386377,0.00260746,0.00712
 330,0.05008882,-0.15620754,0.02925397,0.00191322,-0.00011856,0.0011436
 1,-0.00039256,0.00013463,-0.00145889,-0.00009002,0.00175231,0.00059412
 ,0.04221966,0.52343912,-0.02026745,0.02971730,-0.02408454,-0.01703604,
 0.02721930,-0.08871112,-0.00307013,0.00196319,0.00023112,0.00133643,-0
 .00220333,-0.00553290,0.00056523,0.00074271,-0.00087677,-0.02721983,0.
 02530135,0.55670535,-0.00129745,-0.00098541,-0.00030985,-0.10110642,-0
 .10258967,-0.02804574,0.00058764,0.00077606,0.00064984,-0.00036587,-0.
 00061923,-0.00022731,-0.00007836,0.00041226,-0.00068336,0.00837134,0.0
 1730474,0.00378329,0.10442429,-0.00305673,-0.00355414,-0.00165025,-0.1
 0129362,-0.25119939,-0.05745862,0.00122752,0.00110010,0.00124431,0.000
 58781,0.00048912,0.00180765,0.00069189,0.00122138,0.00004196,-0.009752
 09,-0.02327861,-0.00363869,0.10763034,0.27276399,-0.01818251,-0.032771
 43,-0.02259122,-0.02093461,-0.04832706,-0.05799102,-0.00188401,0.00219
 917,0.00388591,-0.00006543,-0.00283093,0.00048178,0.00146695,0.0022118
 4,-0.00624515,0.00519002,0.01259490,0.00243883,0.03317202,0.05601128,0
 .07595208,-0.00247679,-0.00036098,-0.00187420,-0.27650463,-0.00382794,
 0.07331583,0.00227571,0.00052263,0.00272979,-0.00077344,0.00033138,-0.
 00043841,-0.00082089,-0.00035041,-0.00032617,-0.01456613,-0.00046175,0
 .00527935,-0.01187867,0.00056291,0.00399959,0.30133437,0.00109314,-0.0
 0173094,-0.00146834,-0.00412328,-0.05121060,0.00040619,0.00034126,0.00
 176438,0.00084627,-0.00044085,-0.00017549,0.00055579,0.00036658,-0.000
 04252,-0.00032615,0.02499195,-0.00010159,-0.00862458,-0.02491429,0.001
 91505,0.00949326,0.00076334,0.05124982,0.03241060,0.00141212,-0.009027
 55,0.06553496,-0.00172907,-0.07337582,0.00375210,-0.00035275,-0.009003
 93,0.00072011,-0.00073360,0.00061695,0.00053230,0.00049755,0.00091517,
 -0.01391124,0.00032866,0.00640583,-0.00752625,0.00093302,0.00379335,-0
 .07959714,-0.00267293,0.08143909,-0.00216295,0.00285212,-0.01812853,-0
 .00196122,0.00199740,0.00042719,0.00155787,-0.00079445,0.00027854,-0.0
 4765749,-0.00057627,0.01397625,-0.00033629,-0.00105950,0.00012661,0.00
 056182,0.00009429,-0.00094096,0.00002617,0.00020106,0.00020944,0.00032
 944,0.00009482,-0.00024970,0.04709528,0.00323785,-0.00710658,0.0346207
 0,0.00250894,-0.00465665,-0.00059353,-0.00407953,0.00125413,-0.0010426
 5,-0.00023587,-0.04722825,-0.01578228,0.00045288,0.00145306,0.00209257
 ,0.00011513,0.00084905,0.00185818,0.00034081,0.00028418,0.00014518,-0.
 00011640,-0.00012748,-0.00015284,-0.00302443,0.05499932,-0.00043641,0.
 00194182,-0.01500414,-0.00146104,0.00253251,0.00071825,0.00121680,-0.0
 0161041,0.00255812,0.00719306,-0.00516208,-0.32527599,0.00021711,-0.00
 135690,0.00015091,0.00032124,-0.00040848,-0.00033637,0.00019042,0.0000
 6889,0.00029917,0.00009955,-0.00016388,0.00025985,-0.00801877,0.004506
 89,0.35003501,0.00554781,0.01573353,0.00447359,-0.00015136,0.00036530,
 0.00074571,0.00204547,-0.00000176,-0.00045785,-0.13010437,-0.12133297,
 -0.05321814,-0.00155174,0.00175556,-0.00056470,0.00010295,0.00014778,0
 .00023460,0.00049255,0.00024857,-0.00005247,-0.00003230,-0.00017056,-0
 .00004926,0.00106435,0.00155674,0.00103773,0.13440734,-0.01418323,-0.0
 3223222,-0.00878315,-0.00103797,0.00011688,-0.00258783,-0.00230352,0.0
 0444264,0.00102322,-0.11031738,-0.20691513,-0.07158821,0.00444852,-0.0
 0330188,0.00284720,0.00034501,0.00031250,0.00020671,0.00041169,0.00063
 793,0.00098513,0.00008209,0.00002324,0.00010201,-0.00001858,0.00144358
 ,-0.00022607,0.12207886,0.23231697,0.00429236,0.01202474,0.00237405,0.
 00062151,0.00164699,0.00067342,0.00184702,-0.00036900,-0.00090040,-0.0
 5299564,-0.07786829,-0.08229764,-0.00069579,0.00112376,-0.00076049,0.0
 0000405,-0.00016996,0.00008113,-0.00041246,0.00065487,-0.00044323,0.00
 005025,0.00000046,-0.00008120,-0.01715539,-0.02460031,-0.00857792,0.05
 832718,0.07713763,0.08489414,-0.01396801,-0.00432405,0.00671706,-0.000
 33463,-0.00047247,0.00124866,-0.00333046,0.00655544,-0.00156029,-0.273
 38876,0.00594658,0.07963989,-0.00036719,-0.00117756,0.00008162,0.00027
 730,0.00012344,-0.00061042,-0.00018265,0.00001953,0.00000871,0.0010510
 8,0.00027314,-0.00085767,0.00118725,-0.00086764,-0.00018549,-0.0126254
 6,0.00148705,0.00618852,0.29998073,0.02348401,0.00200939,-0.01143095,-
 0.00028119,0.00029499,-0.00066148,0.00726202,-0.00343049,0.00096482,-0
 .00066785,-0.05453699,0.00184414,0.00009503,0.00059343,0.00007520,-0.0
 0028852,0.00000407,-0.00005696,-0.00011725,-0.00001417,0.00019941,0.00
 002333,0.00002126,0.00075184,0.00015505,-0.00001258,-0.00072088,-0.021
 58117,0.00391552,0.00975161,-0.00767696,0.05187085,-0.00940497,-0.0010
 2810,0.00165349,-0.00021203,0.00030483,-0.00019397,-0.00214679,0.00104
 664,0.00234793,0.08334468,-0.00053003,-0.08213095,0.00047863,-0.000254
 02,-0.00017964,0.00031945,-0.00026016,0.00013246,-0.00008984,-0.000129
 06,-0.00005838,-0.00047122,0.00056150,-0.00045383,0.02946678,-0.000676
 06,-0.00597118,-0.01039346,0.00143535,0.00397407,-0.09050333,-0.000287
 85,0.08031214,0.00631596,-0.01760912,0.00513508,0.00017733,0.00071883,
 0.00066664,0.00230753,0.00021722,-0.00027447,-0.00197318,-0.00184329,-
 0.00092495,-0.12598868,0.12408769,-0.04236917,0.00028072,0.00042650,-0
 .00114119,0.00000211,-0.00003651,0.00008655,-0.00001917,0.00008918,-0.
 00006704,-0.00012113,-0.00001210,0.00002765,0.00075860,-0.00093631,0.0
 0006016,0.00020952,-0.00017719,-0.00018775,0.13001360,0.01297066,-0.03
 048855,0.00662240,0.00050742,-0.00016875,0.00164203,0.00211749,0.00418
 681,-0.00058676,-0.00433555,-0.00281574,-0.00290329,0.11324807,-0.2264
 1996,0.06215641,-0.00004275,0.00002780,0.00038612,0.00002180,0.0000547
 3,-0.00000760,-0.00005548,-0.00006579,-0.00007601,-0.00003314,0.000218
 54,-0.00008090,0.00080760,-0.00146097,0.00052521,0.00007194,0.00031817
 ,-0.00012240,-0.12521106,0.25147527,0.00574804,-0.01479936,0.00336449,
 0.00087409,-0.00024305,0.00062301,0.00192992,0.00083563,-0.00094685,-0
 .00125313,-0.00114459,-0.00106300,-0.04305421,0.06853897,-0.07108101,-
 0.00061197,-0.00059064,-0.00100782,-0.00004749,0.00017893,0.00008261,-
 0.00001297,-0.00003458,-0.00011437,-0.00009916,-0.00024578,0.00040829,
 0.00006772,-0.00071314,0.00069707,-0.00015879,0.00010330,-0.00011876,0
 .04777503,-0.06744739,0.07439240,-0.00246856,-0.00196741,-0.01940702,-
 0.00176521,-0.00211114,0.00053644,0.00166416,0.00066116,0.00043463,-0.
 00026124,0.00114385,0.00011082,-0.04759984,-0.00006056,0.01095414,0.00
 019227,-0.00001354,-0.00010128,0.00035023,-0.00009299,-0.00097993,0.00
 028276,-0.00010840,-0.00017069,0.00053159,0.00001006,0.00010881,-0.000
 12027,0.00006526,-0.00008414,-0.00005705,-0.00000918,0.00020274,0.0007
 5932,0.00119036,-0.01667719,0.04710564,-0.00396730,-0.00481322,-0.0341
 3693,-0.00273611,-0.00497020,0.00010591,0.00387117,0.00095467,0.000961
 87,-0.00041952,0.00139256,-0.00209122,0.00017019,-0.04895021,0.0336597
 3,-0.00009588,-0.00049904,0.00045744,-0.00020217,0.00010759,-0.0018536
 5,0.00007735,-0.00002005,0.00017624,-0.00010265,-0.00084760,0.00016866
 ,0.00004921,0.00022634,0.00021923,0.00006719,-0.00010203,0.00007099,-0
 .00133596,-0.00028924,0.02581600,0.00353327,0.05700951,-0.00091664,-0.
 00189340,-0.01722017,-0.00125983,-0.00222994,0.00133808,0.00147066,0.0
 0146030,0.00262274,0.00025925,0.00150624,0.00015042,0.00405885,0.02335
 730,-0.32336372,0.00018149,-0.00017983,0.00021189,-0.00018326,-0.00013
 122,-0.00072313,0.00006488,0.00013059,0.00026534,0.00009120,-0.0002654
 0,0.00093822,0.00003497,0.00007370,0.00042094,-0.00005431,-0.00011448,
 -0.00005839,0.00076427,0.00084552,-0.00684392,-0.00430608,-0.02375810,
 0.34855400,-0.01431345,0.00398411,0.00726637,-0.00046246,0.00025967,0.
 00115550,-0.00344465,-0.00623591,-0.00210116,-0.00046928,0.00118210,0.
 00012250,-0.27212083,-0.00531937,0.08190157,-0.00005813,-0.00006388,-0
 .00036945,0.00036843,0.00003522,-0.00005495,0.00103172,-0.00015690,-0.
 00085237,-0.00004291,-0.00006314,-0.00005561,0.00018308,-0.00005078,-0
 .00014653,0.00126464,-0.00019475,-0.00024044,-0.01212256,-0.00144216,0
 .00608334,0.00153898,0.00084960,-0.00017665,0.29856380,-0.02220039,0.0
 0179966,0.01170553,0.00041633,0.00068947,0.00058423,-0.00706942,-0.003
 01104,-0.00109766,-0.00014771,0.00054334,-0.00003155,0.00092688,-0.054
 45958,-0.00194702,0.00010354,0.00002912,-0.00016918,0.00016377,0.00002
 795,0.00022249,0.00000020,-0.00000121,-0.00068805,-0.00001811,-0.00009
 588,0.00009851,0.00022189,0.00031563,-0.00003724,0.00019826,-0.0010720
 9,-0.00002559,0.02259245,0.00423568,-0.01039324,-0.00217528,-0.0001766
 2,0.00114778,0.00707084,0.05137747,-0.01101606,0.00120051,0.00260713,-
 0.00018466,-0.00003711,-0.00011785,-0.00266793,-0.00139118,0.00253106,
 0.00053438,0.00026086,-0.00020480,0.08586328,0.00039865,-0.08425599,0.
 00011685,-0.00008890,-0.00003191,0.00015494,0.00012435,0.00016978,-0.0
 0050629,-0.00044433,-0.00045346,0.00018152,-0.00007270,-0.00003340,-0.
 00016290,0.00015702,-0.00010053,-0.00022409,-0.00005835,0.00046147,-0.
 00875747,-0.00110710,0.00321700,0.02939840,0.00026791,-0.00629604,-0.0
 9271873,0.00060022,0.08244569,-0.00209009,-0.00036890,0.00287377,-0.01
 922630,0.00376578,0.00492434,0.00185345,-0.00186403,0.00202521,-0.0004
 0879,0.00009277,0.00001722,-0.00029219,0.00019046,-0.00019277,-0.25920
 630,0.00925253,0.10861369,0.00064989,-0.00009134,-0.00024530,-0.000444
 75,0.00310470,-0.00100620,0.00009304,-0.00003747,-0.00007303,-0.000000
 84,-0.00003845,0.00002363,0.00022279,0.00002665,-0.00011806,-0.0002049
 6,-0.00013429,-0.00011700,0.00002999,-0.00004986,-0.00003579,0.0001889
 6,-0.00007606,0.00003784,0.28280465,0.00067271,0.00127423,-0.00034191,
 0.02487375,-0.00147710,-0.01350799,-0.00152518,-0.00020082,-0.00084995
 ,-0.00015301,0.00000878,-0.00015798,-0.00018404,0.00016826,0.00014706,
 0.00809795,-0.04988270,-0.00634707,-0.00026340,0.00065320,-0.00059580,
 0.00251542,-0.00331554,0.00300436,-0.00007799,0.00002291,0.00006278,0.
 00007131,-0.00005142,-0.00002180,-0.00027880,0.00015557,-0.00004471,-0
 .00013983,-0.00002120,0.00004435,0.00005544,0.00005819,0.00003563,-0.0
 0010805,-0.00022552,0.00000315,-0.01394025,0.05215143,-0.00098093,-0.0
 0054834,0.00012491,-0.01288002,0.00012483,0.00783235,0.00066761,0.0000
 0230,-0.00156818,0.00090212,0.00001667,-0.00001270,0.00001243,-0.00007
 428,-0.00028867,0.11154760,-0.00780432,-0.10115097,0.00046572,-0.00032
 787,0.00034582,-0.00185398,0.00238927,-0.00157731,0.00000759,0.0000146
 6,-0.00006133,-0.00004838,0.00003015,0.00001554,0.00032922,-0.00037415
 ,0.00021971,-0.00025332,-0.00010291,0.00003716,-0.00002839,-0.00005592
 ,-0.00006006,0.00028978,0.00010362,0.00009639,-0.11950329,0.00712068,0
 .10671555,0.00012089,-0.00059740,0.00006359,0.00987304,0.01859887,0.00
 382534,0.00050810,-0.00000662,0.00088649,0.00009356,0.00002681,0.00015
 509,0.00035381,-0.00059945,-0.00069184,-0.10926242,-0.11008792,-0.0120
 8141,-0.00138806,0.00336761,-0.00225508,0.00128720,-0.00068658,0.00080
 842,-0.00004759,-0.00010993,-0.00005239,-0.00004700,-0.00008048,0.0000
 3309,0.00002874,-0.00001670,-0.00000216,-0.00017099,0.00024655,-0.0005
 2817,-0.00013250,0.00018842,0.00001810,-0.00015447,0.00005299,-0.00005
 781,-0.01151290,-0.02498140,-0.00605155,0.11367798,-0.00028344,-0.0001
 8044,-0.00094793,-0.01234569,-0.02277868,-0.00378241,0.00013167,0.0002
 6396,0.00064968,-0.00005989,0.00002037,0.00025254,0.00005497,-0.000666
 79,-0.00061045,-0.10730591,-0.24537846,-0.02114298,0.00346548,-0.00233
 886,0.00224389,0.00025369,0.00121065,-0.00019477,0.00010140,0.00003742
 ,0.00013496,0.00009361,0.00023247,-0.00001922,-0.00000205,-0.00003078,
 -0.00004449,-0.00058573,0.00083042,-0.00003783,-0.00008082,0.00055742,
 -0.00000914,0.00019175,-0.00003959,0.00013719,0.00068755,0.00226668,0.
 00063485,0.11803132,0.27037064,0.00091676,0.00051812,0.00097034,0.0074
 3338,0.01151414,0.00072775,-0.00023369,-0.00036415,-0.00065759,-0.0002
 2147,-0.00008211,-0.00013139,-0.00048752,0.00033257,-0.00066634,-0.011
 93443,-0.02256726,-0.04974986,-0.00135356,0.00197419,0.00000317,0.0000
 4059,-0.00080100,0.00021526,-0.00004093,-0.00005850,-0.00008251,0.0000
 1516,-0.00013006,0.00004773,0.00001591,0.00001949,0.00002760,-0.000529
 36,0.00007100,-0.00167266,0.00003324,-0.00006805,0.00008892,-0.0000285
 8,-0.00009102,-0.00002431,0.00576410,0.01386539,0.00226672,0.01623143,
 0.02389795,0.05083291,-0.00410897,0.00286007,0.00088930,-0.00338951,-0
 .00343248,-0.01926636,0.00137812,-0.00117352,0.00129634,0.00018832,-0.
 00021812,-0.00103791,0.00027810,0.00037908,-0.00003349,-0.05006467,-0.
 00659754,-0.03697447,0.00102484,-0.00024918,0.00052099,-0.00007552,-0.
 00051726,0.00052905,-0.00011723,0.00032409,-0.00012960,0.00003120,0.00
 004821,0.00004218,0.00003216,-0.00003532,-0.00004224,-0.00022401,0.000
 07255,0.00008192,-0.00005025,0.00010305,-0.00001111,0.00004913,-0.0000
 6017,0.00000872,0.00754434,0.00536537,0.02737779,-0.00322738,-0.002347
 91,-0.01562102,0.05073135,0.00419980,-0.00478775,0.00213205,0.00202052
 ,0.00401532,0.02594999,0.00001004,0.00053527,-0.00059752,-0.00026331,0
 .00060014,0.00134318,-0.00006354,-0.00107463,-0.00054284,-0.00672103,-
 0.05368957,-0.04566948,-0.00083551,0.00112994,0.00007989,0.00004061,0.
 00060682,-0.00060580,0.00020899,-0.00048718,0.00021457,-0.00004351,-0.
 00002206,0.00000133,0.00005696,0.00001586,-0.00001685,-0.00024476,0.00
 038278,0.00013244,-0.00004009,0.00036192,0.00002446,0.00006167,0.00006
 321,0.00004979,-0.00051981,-0.00158493,-0.00114925,-0.00334610,-0.0043
 7642,-0.02803072,0.00547907,0.05831130,-0.00034349,0.00194342,0.000343
 81,-0.00021438,-0.00352806,-0.01206267,-0.00104714,0.00068789,-0.00043
 363,0.00029183,-0.00038843,-0.00062135,0.00038075,0.00000002,0.0003387
 7,-0.03780526,-0.04281146,-0.29472436,0.00046290,0.00029625,0.00059963
 ,-0.00049947,0.00015247,0.00017664,-0.00013168,0.00025185,-0.00002497,
 0.00001050,0.00003034,-0.00001669,-0.00007523,-0.00000471,0.00003622,-
 0.00001066,0.00018567,0.00002638,-0.00002449,0.00005987,-0.00002511,-0
 .00007461,0.00001817,-0.00001024,-0.00298834,-0.00241620,-0.01293494,-
 0.00030114,-0.00116185,-0.00219574,0.04236992,0.04668476,0.32152825\\-
 0.00097996,-0.00000157,-0.00005565,0.00095176,-0.00005534,0.00003971,0
 .00000898,0.00005009,-0.00003008,0.00003445,-0.00005559,-0.00000429,0.
 00000576,0.00000785,-0.00001547,0.00002617,0.00004502,0.00003545,0.000
 00472,0.00001711,-0.00003179,0.00000959,0.00001354,0.00001405,0.000001
 88,-0.00000765,-0.00000052,0.00000880,-0.00001317,0.00001825,-0.000008
 02,0.00000120,0.00000767,-0.00002435,0.00002712,-0.00001663,-0.0000034
 9,0.00001367,0.00000673,-0.00002466,-0.00000983,-0.00000338,-0.0000280
 2,-0.00001485,-0.00000046,0.00002768,-0.00000541,0.00001795,-0.0000112
 9,-0.00001218,0.00001846\\\@


 Once you get people laughing, they're
 listening and you can tell them almost anything.
                                 -- Herb Gardner
 Job cpu time:       0 days  0 hours 50 minutes 43.9 seconds.
 Elapsed time:       0 days  0 hours  4 minutes 14.1 seconds.
 File lengths (MBytes):  RWF=     94 Int=      0 D2E=      0 Chk=     32 Scr=      1
 Normal termination of Gaussian 16 at Fri Jun 10 11:13:51 2022.
