 Entering Gaussian System, Link 0=g16
 Input=int_initalOptXYZ_aligned_sp.gjf
 Output=int_initalOptXYZ_aligned_sp.out
 Initial command:
 /software/gaussian/g16-a03/l1.exe "/local_scratch/11171239/Gau-667.inp" -scrdir="/local_scratch/11171239/"
 Entering Link 1 = /software/gaussian/g16-a03/l1.exe PID=       668.
  
 Copyright (c) 1988,1990,1992,1993,1995,1998,2003,2009,2016,
            Gaussian, Inc.  All Rights Reserved.
  
 This is part of the Gaussian(R) 16 program.  It is based on
 the Gaussian(R) 09 system (copyright 2009, Gaussian, Inc.),
 the Gaussian(R) 03 system (copyright 2003, Gaussian, Inc.),
 the Gaussian(R) 98 system (copyright 1998, Gaussian, Inc.),
 the Gaussian(R) 94 system (copyright 1995, Gaussian, Inc.),
 the Gaussian 92(TM) system (copyright 1992, Gaussian, Inc.),
 the Gaussian 90(TM) system (copyright 1990, Gaussian, Inc.),
 the Gaussian 88(TM) system (copyright 1988, Gaussian, Inc.),
 the Gaussian 86(TM) system (copyright 1986, Carnegie Mellon
 University), and the Gaussian 82(TM) system (copyright 1983,
 Carnegie Mellon University). Gaussian is a federally registered
 trademark of Gaussian, Inc.
  
 This software contains proprietary and confidential information,
 including trade secrets, belonging to Gaussian, Inc.
  
 This software is provided under written license and may be
 used, copied, transmitted, or stored only in accord with that
 written license.
  
 The following legend is applicable only to US Government
 contracts under FAR:
  
                    RESTRICTED RIGHTS LEGEND
  
 Use, reproduction and disclosure by the US Government is
 subject to restrictions as set forth in subparagraphs (a)
 and (c) of the Commercial Computer Software - Restricted
 Rights clause in FAR 52.227-19.
  
 Gaussian, Inc.
 340 Quinnipiac St., Bldg. 40, Wallingford CT 06492
  
  
 ---------------------------------------------------------------
 Warning -- This program may not be used in any manner that
 competes with the business of Gaussian, Inc. or will provide
 assistance to any competitor of Gaussian, Inc.  The licensee
 of this program is prohibited from giving any competitor of
 Gaussian, Inc. access to this program.  By using this program,
 the user acknowledges that Gaussian, Inc. is engaged in the
 business of creating and licensing software in the field of
 computational chemistry and represents and warrants to the
 licensee that it is not a competitor of Gaussian, Inc. and that
 it will not use this program in any manner prohibited above.
 ---------------------------------------------------------------
  

 Cite this work as:
 Gaussian 16, Revision A.03,
 M. J. Frisch, G. W. Trucks, H. B. Schlegel, G. E. Scuseria, 
 M. A. Robb, J. R. Cheeseman, G. Scalmani, V. Barone, 
 G. A. Petersson, H. Nakatsuji, X. Li, M. Caricato, A. V. Marenich, 
 J. Bloino, B. G. Janesko, R. Gomperts, B. Mennucci, H. P. Hratchian, 
 J. V. Ortiz, A. F. Izmaylov, J. L. Sonnenberg, D. Williams-Young, 
 F. Ding, F. Lipparini, F. Egidi, J. Goings, B. Peng, A. Petrone, 
 T. Henderson, D. Ranasinghe, V. G. Zakrzewski, J. Gao, N. Rega, 
 G. Zheng, W. Liang, M. Hada, M. Ehara, K. Toyota, R. Fukuda, 
 J. Hasegawa, M. Ishida, T. Nakajima, Y. Honda, O. Kitao, H. Nakai, 
 T. Vreven, K. Throssell, J. A. Montgomery, Jr., J. E. Peralta, 
 F. Ogliaro, M. J. Bearpark, J. J. Heyd, E. N. Brothers, K. N. Kudin, 
 V. N. Staroverov, T. A. Keith, R. Kobayashi, J. Normand, 
 K. Raghavachari, A. P. Rendell, J. C. Burant, S. S. Iyengar, 
 J. Tomasi, M. Cossi, J. M. Millam, M. Klene, C. Adamo, R. Cammi, 
 J. W. Ochterski, R. L. Martin, K. Morokuma, O. Farkas, 
 J. B. Foresman, and D. J. Fox, Gaussian, Inc., Wallingford CT, 2016.
 
 ******************************************
 Gaussian 16:  ES64L-G16RevA.03 25-Dec-2016
                10-Jun-2022 
 ******************************************
 %nprocshared=12
 Will use up to   12 processors via shared memory.
 %chk=checkpoint.chk
 %mem=12GB
 --------------------------
 # sp B3LYP/Def2TZVP NoSymm
 --------------------------
 1/38=1,172=1/1;
 2/12=2,15=1,17=6,18=5,40=1/2;
 3/5=44,7=101,11=2,25=1,30=1,74=-5/1,2,3;
 4//1;
 5/5=2,38=5/2;
 6/7=2,8=2,9=2,10=2,28=1/1;
 99/5=1,9=1/99;
 ----------------------------------
 int_initalOptXYZ_aligned_AlignedSp
 ----------------------------------
 Symbolic Z-matrix:
 Charge =  0 Multiplicity = 1
 6                    -2.53994   0.43019  -0.0414 
 6                    -1.62439   1.55971  -0.05068 
 6                    -2.31655  -0.83543  -0.34247 
 8                    -2.19069  -1.96058  -0.58781 
 6                    -0.2782    1.61342  -0.05044 
 6                     0.69807   0.55383   0.05746 
 6                     0.67992  -0.72467   0.59918 
 1                    -0.16028  -1.19662   1.07729 
 1                    -3.59103   0.62695   0.14309 
 1                    -2.14111   2.51145  -0.07326 
 1                     0.14613   2.60994  -0.13289 
 6                     1.97856  -1.27236   0.47898 
 1                     2.29923  -2.24622   0.80944 
 6                     2.77009  -0.32769  -0.13124 
 1                     3.80915  -0.35183  -0.41171 
 7                     1.99383   0.77061  -0.37015 
 1                     2.29901   1.60074  -0.84708 
 
                          Input orientation:                          
 ---------------------------------------------------------------------
 Center     Atomic      Atomic             Coordinates (Angstroms)
 Number     Number       Type             X           Y           Z
 ---------------------------------------------------------------------
      1          6           0       -2.539942    0.430193   -0.041402
      2          6           0       -1.624391    1.559711   -0.050683
      3          6           0       -2.316553   -0.835429   -0.342472
      4          8           0       -2.190686   -1.960581   -0.587808
      5          6           0       -0.278195    1.613422   -0.050441
      6          6           0        0.698067    0.553826    0.057455
      7          6           0        0.679922   -0.724665    0.599177
      8          1           0       -0.160278   -1.196621    1.077289
      9          1           0       -3.591030    0.626946    0.143089
     10          1           0       -2.141108    2.511451   -0.073262
     11          1           0        0.146134    2.609939   -0.132889
     12          6           0        1.978559   -1.272364    0.478979
     13          1           0        2.299231   -2.246222    0.809443
     14          6           0        2.770088   -0.327685   -0.131244
     15          1           0        3.809148   -0.351826   -0.411706
     16          7           0        1.993832    0.770614   -0.370145
     17          1           0        2.299011    1.600735   -0.847084
 ---------------------------------------------------------------------
                    Distance matrix (angstroms):
                    1          2          3          4          5
     1  C    0.000000
     2  C    1.454005   0.000000
     3  C    1.319979   2.510164   0.000000
     4  O    2.477164   3.605780   1.158447   0.000000
     5  C    2.552570   1.347267   3.199540   4.088995   0.000000
     6  C    3.241876   2.533241   3.343337   3.883748   1.444809
     7  C    3.480167   3.309162   3.142902   3.343174   2.608954
     8  H    3.092053   3.318631   2.606857   2.734728   3.030185
     9  H    1.085143   2.185238   1.999650   3.031579   3.462003
    10  H    2.119367   1.083197   3.362270   4.501809   2.068193
    11  H    3.460443   2.060217   4.240202   5.153381   1.086232
    12  C    4.856578   4.613289   4.394733   4.358243   3.701484
    13  H    5.595063   5.533512   4.962127   4.710972   4.720104
    14  C    5.364594   4.783325   5.116282   5.242526   3.614755
    15  H    6.407778   5.771279   6.145151   6.214267   4.549625
    16  N    4.558406   3.717024   4.599952   5.001699   2.444308
    17  H    5.043288   4.003626   5.243373   5.736512   2.697553
                    6          7          8          9         10
     6  C    0.000000
     7  C    1.388644   0.000000
     8  H    2.200200   1.075765   0.000000
     9  H    4.290575   4.502877   3.996021   0.000000
    10  H    3.451130   4.345438   4.358584   2.387560   0.000000
    11  H    2.137396   3.455493   4.006035   4.239672   2.290138
    12  C    2.269871   1.414525   2.222237   5.894109   5.620844
    13  H    3.312021   2.231929   2.687487   6.587435   6.567437
    14  C    2.259633   2.249423   3.286738   6.438199   5.673086
    15  H    3.274010   3.309524   4.322861   7.485214   6.611993
    16  N    1.381610   2.214002   3.256573   5.610235   4.496263
    17  H    2.115947   3.181290   4.192435   6.051553   4.598137
                   11         12         13         14         15
    11  H    0.000000
    12  C    4.336409   0.000000
    13  H    5.395008   1.077236   0.000000
    14  C    3.938880   1.375249   2.188009   0.000000
    15  H    4.718841   2.234226   2.712893   1.076516   0.000000
    16  N    2.617899   2.212466   3.253613   1.365982   2.134706
    17  H    2.482629   3.180539   4.188456   2.110247   2.506504
                   16         17
    16  N    0.000000
    17  H    1.004841   0.000000
 Symmetry turned off by external request.
 Stoichiometry    C8H7NO
 Framework group  C1[X(C8H7NO)]
 Deg. of freedom    45
 Full point group                 C1      NOp   1
 Rotational constants (GHZ):           2.4040287           0.9754095           0.7267253
 Standard basis: def2TZVP (5D, 7F)
   352 basis functions,   566 primitive gaussians,   402 cartesian basis functions
    35 alpha electrons       35 beta electrons
       nuclear repulsion energy       459.9970949078 Hartrees.
 NAtoms=   17 NActive=   17 NUniq=   17 SFac= 1.00D+00 NAtFMM=   60 NAOKFM=F Big=F
 Integral buffers will be    131072 words long.
 Raffenetti 2 integral format.
 Two-electron integral symmetry is turned off.
 One-electron integrals computed using PRISM.
   1 Symmetry operations used in ECPInt.
 ECPInt:  NShTT=    9591 NPrTT=   29644 LenC2=    9221 LenP2D=   22129.
 LDataN:  DoStor=T MaxTD1= 6 Len=  172
 NBasis=   352 RedAO= T EigKep=  3.29D-05  NBF=   352
 NBsUse=   352 1.00D-06 EigRej= -1.00D+00 NBFU=   352
 ExpMin= 9.52D-02 ExpMax= 2.70D+04 ExpMxC= 9.22D+02 IAcc=3 IRadAn=         5 AccDes= 0.00D+00
 Harris functional with IExCor=  402 and IRadAn=       5 diagonalized for initial guess.
 HarFok:  IExCor=  402 AccDes= 0.00D+00 IRadAn=         5 IDoV= 1 UseB2=F ITyADJ=14
 ICtDFT=  3500011 ScaDFX=  1.000000  1.000000  1.000000  1.000000
 FoFCou: FMM=F IPFlag=           0 FMFlag=      100000 FMFlg1=           0
         NFxFlg=           0 DoJE=T BraDBF=F KetDBF=T FulRan=T
         wScrn=  0.000000 ICntrl=       500 IOpCl=  0 I1Cent=   200000004 NGrid=           0
         NMat0=    1 NMatS0=      1 NMatT0=    0 NMatD0=    1 NMtDS0=    0 NMtDT0=    0
 Symmetry not used in FoFCou.
 Requested convergence on RMS density matrix=1.00D-08 within 128 cycles.
 Requested convergence on MAX density matrix=1.00D-06.
 Requested convergence on             energy=1.00D-06.
 No special actions if energy rises.
 Integral accuracy reduced to 1.0D-05 until final iterations.
 Initial convergence to 1.0D-05 achieved.  Increase integral accuracy.
 SCF Done:  E(RB3LYP) =  -439.153853935     A.U. after   15 cycles
            NFock= 15  Conv=0.70D-08     -V/T= 2.0049

 **********************************************************************

            Population analysis using the SCF density.

 **********************************************************************

 Alpha  occ. eigenvalues --  -19.19830 -14.36149 -10.29963 -10.20234 -10.19481
 Alpha  occ. eigenvalues --  -10.19328 -10.19086 -10.17933 -10.15786 -10.15722
 Alpha  occ. eigenvalues --   -1.12788  -0.98269  -0.82669  -0.77797  -0.76941
 Alpha  occ. eigenvalues --   -0.71156  -0.62152  -0.59481  -0.57514  -0.54441
 Alpha  occ. eigenvalues --   -0.51928  -0.50766  -0.46470  -0.45926  -0.45741
 Alpha  occ. eigenvalues --   -0.43171  -0.41975  -0.40733  -0.39720  -0.38854
 Alpha  occ. eigenvalues --   -0.36368  -0.32507  -0.25328  -0.25187  -0.19186
 Alpha virt. eigenvalues --   -0.04578  -0.03416   0.02747   0.03968   0.05137
 Alpha virt. eigenvalues --    0.06106   0.07072   0.08264   0.09145   0.09873
 Alpha virt. eigenvalues --    0.11641   0.12120   0.12408   0.15060   0.16411
 Alpha virt. eigenvalues --    0.18013   0.19143   0.20311   0.21482   0.21598
 Alpha virt. eigenvalues --    0.22758   0.23083   0.24554   0.25098   0.26244
 Alpha virt. eigenvalues --    0.26724   0.27604   0.28388   0.29054   0.30582
 Alpha virt. eigenvalues --    0.32643   0.33031   0.33617   0.35740   0.36062
 Alpha virt. eigenvalues --    0.37193   0.37906   0.38434   0.39165   0.39601
 Alpha virt. eigenvalues --    0.41023   0.41336   0.42647   0.43224   0.43705
 Alpha virt. eigenvalues --    0.44554   0.46453   0.46519   0.48106   0.49181
 Alpha virt. eigenvalues --    0.49798   0.52359   0.52906   0.55013   0.55539
 Alpha virt. eigenvalues --    0.56835   0.58420   0.59313   0.60349   0.61752
 Alpha virt. eigenvalues --    0.63488   0.63998   0.65596   0.67052   0.68907
 Alpha virt. eigenvalues --    0.69199   0.70929   0.72699   0.75234   0.76458
 Alpha virt. eigenvalues --    0.77471   0.80014   0.81888   0.83317   0.86103
 Alpha virt. eigenvalues --    0.87397   0.88102   0.88708   0.90411   0.92814
 Alpha virt. eigenvalues --    0.95178   0.96835   0.98049   0.99660   1.00716
 Alpha virt. eigenvalues --    1.04594   1.06619   1.07307   1.09304   1.10673
 Alpha virt. eigenvalues --    1.12175   1.14710   1.15993   1.17375   1.18943
 Alpha virt. eigenvalues --    1.19772   1.21475   1.22226   1.24480   1.27002
 Alpha virt. eigenvalues --    1.28228   1.29279   1.32703   1.34215   1.36665
 Alpha virt. eigenvalues --    1.37133   1.37649   1.39446   1.41937   1.42709
 Alpha virt. eigenvalues --    1.45273   1.45487   1.46882   1.48492   1.49469
 Alpha virt. eigenvalues --    1.50565   1.51948   1.52624   1.53699   1.57456
 Alpha virt. eigenvalues --    1.57766   1.59740   1.60726   1.62877   1.63368
 Alpha virt. eigenvalues --    1.65200   1.66778   1.69904   1.72223   1.74077
 Alpha virt. eigenvalues --    1.74770   1.80159   1.81275   1.84220   1.85950
 Alpha virt. eigenvalues --    1.86456   1.90922   1.92717   1.94636   1.95945
 Alpha virt. eigenvalues --    1.97391   2.01442   2.02327   2.04652   2.07590
 Alpha virt. eigenvalues --    2.08379   2.11836   2.13839   2.15270   2.17632
 Alpha virt. eigenvalues --    2.20880   2.22302   2.22772   2.26026   2.27401
 Alpha virt. eigenvalues --    2.27865   2.29747   2.32148   2.33372   2.40743
 Alpha virt. eigenvalues --    2.42063   2.43696   2.46456   2.51097   2.52931
 Alpha virt. eigenvalues --    2.54694   2.55169   2.56518   2.58062   2.59481
 Alpha virt. eigenvalues --    2.61118   2.62231   2.64962   2.65517   2.66796
 Alpha virt. eigenvalues --    2.68284   2.69891   2.70711   2.72204   2.72556
 Alpha virt. eigenvalues --    2.73233   2.74160   2.75844   2.79641   2.80158
 Alpha virt. eigenvalues --    2.82202   2.82946   2.84265   2.86014   2.88366
 Alpha virt. eigenvalues --    2.89161   2.90479   2.91547   2.93020   2.94668
 Alpha virt. eigenvalues --    2.95723   2.98240   3.00835   3.02072   3.02434
 Alpha virt. eigenvalues --    3.04033   3.04722   3.06276   3.06795   3.07561
 Alpha virt. eigenvalues --    3.08420   3.10299   3.12518   3.13555   3.14647
 Alpha virt. eigenvalues --    3.17502   3.18480   3.18941   3.19377   3.20979
 Alpha virt. eigenvalues --    3.23481   3.24334   3.26173   3.28423   3.28594
 Alpha virt. eigenvalues --    3.30702   3.32171   3.34589   3.35875   3.37723
 Alpha virt. eigenvalues --    3.39268   3.40215   3.43459   3.47972   3.48166
 Alpha virt. eigenvalues --    3.48741   3.50169   3.52684   3.53029   3.56653
 Alpha virt. eigenvalues --    3.57937   3.60349   3.63489   3.64128   3.66283
 Alpha virt. eigenvalues --    3.70709   3.72826   3.74077   3.79014   3.81208
 Alpha virt. eigenvalues --    3.84930   3.87417   3.90970   3.94379   3.95473
 Alpha virt. eigenvalues --    3.98107   4.01355   4.01518   4.04742   4.06886
 Alpha virt. eigenvalues --    4.17218   4.19206   4.21407   4.22628   4.24575
 Alpha virt. eigenvalues --    4.29928   4.31876   4.34869   4.37527   4.41905
 Alpha virt. eigenvalues --    4.48809   4.51325   4.56321   4.61747   4.64542
 Alpha virt. eigenvalues --    4.67199   4.70156   4.74268   4.77770   4.79002
 Alpha virt. eigenvalues --    4.82181   4.83116   4.88372   4.93674   4.95655
 Alpha virt. eigenvalues --    4.98070   5.02738   5.09855   5.10273   5.10501
 Alpha virt. eigenvalues --    5.10980   5.16491   5.21885   5.24376   5.26937
 Alpha virt. eigenvalues --    5.36689   5.43432   5.52428   5.58075   5.60161
 Alpha virt. eigenvalues --    5.61537   5.72584   5.91606   6.01016   6.27415
 Alpha virt. eigenvalues --    6.29498   6.51650   6.57505   6.62847   6.78895
 Alpha virt. eigenvalues --    6.83058   7.17694  22.29544  22.48792  22.64633
 Alpha virt. eigenvalues --   22.66874  22.76181  22.87209  23.20479  23.51770
 Alpha virt. eigenvalues --   32.32616  43.94848
          Condensed to atoms (all electrons):
               1          2          3          4          5          6
     1  C    5.139178   0.333718   0.557309  -0.042075  -0.025957  -0.040098
     2  C    0.333718   4.880746  -0.034231   0.002597   0.636121  -0.083627
     3  C    0.557309  -0.034231   4.663088   0.624499  -0.015465   0.004651
     4  O   -0.042075   0.002597   0.624499   7.549338   0.000964  -0.002143
     5  C   -0.025957   0.636121  -0.015465   0.000964   5.087547   0.319495
     6  C   -0.040098  -0.083627   0.004651  -0.002143   0.319495   5.034199
     7  C    0.006995  -0.028721   0.003054  -0.006279  -0.110060   0.507451
     8  H   -0.004261  -0.002098  -0.005122   0.004103  -0.003595  -0.060934
     9  H    0.396410  -0.020899  -0.037715  -0.000289   0.004345   0.000705
    10  H   -0.057049   0.407488   0.004608  -0.000091  -0.032784   0.013757
    11  H    0.012072  -0.021219   0.000528  -0.000018   0.413942  -0.084968
    12  C   -0.000267   0.002773   0.002367  -0.000553   0.019744  -0.044501
    13  H    0.000014  -0.000007   0.000034  -0.000023  -0.000292   0.011979
    14  C   -0.000241  -0.000855  -0.000339   0.000037  -0.000346  -0.143718
    15  H   -0.000006   0.000038  -0.000001   0.000001  -0.000679   0.006613
    16  N    0.000559   0.000431  -0.000786  -0.000026  -0.045989   0.369766
    17  H    0.000050   0.000031  -0.000038   0.000000   0.001100  -0.052312
               7          8          9         10         11         12
     1  C    0.006995  -0.004261   0.396410  -0.057049   0.012072  -0.000267
     2  C   -0.028721  -0.002098  -0.020899   0.407488  -0.021219   0.002773
     3  C    0.003054  -0.005122  -0.037715   0.004608   0.000528   0.002367
     4  O   -0.006279   0.004103  -0.000289  -0.000091  -0.000018  -0.000553
     5  C   -0.110060  -0.003595   0.004345  -0.032784   0.413942   0.019744
     6  C    0.507451  -0.060934   0.000705   0.013757  -0.084968  -0.044501
     7  C    5.074486   0.446033   0.000230  -0.000310   0.001520   0.436531
     8  H    0.446033   0.533498   0.000200  -0.000016  -0.000297  -0.048719
     9  H    0.000230   0.000200   0.514854  -0.005564  -0.000206  -0.000016
    10  H   -0.000310  -0.000016  -0.005564   0.574462  -0.013638   0.000048
    11  H    0.001520  -0.000297  -0.000206  -0.013638   0.592753  -0.000873
    12  C    0.436531  -0.048719  -0.000016   0.000048  -0.000873   4.936529
    13  H   -0.047398  -0.004521   0.000000  -0.000000   0.000024   0.433402
    14  C   -0.041379   0.013527   0.000001   0.000022   0.000825   0.556360
    15  H    0.005327  -0.000090  -0.000000  -0.000001  -0.000026  -0.024533
    16  N   -0.059626   0.005183   0.000005  -0.000279   0.001696  -0.110021
    17  H    0.012295  -0.000202   0.000001  -0.000038   0.003106   0.005890
              13         14         15         16         17
     1  C    0.000014  -0.000241  -0.000006   0.000559   0.000050
     2  C   -0.000007  -0.000855   0.000038   0.000431   0.000031
     3  C    0.000034  -0.000339  -0.000001  -0.000786  -0.000038
     4  O   -0.000023   0.000037   0.000001  -0.000026   0.000000
     5  C   -0.000292  -0.000346  -0.000679  -0.045989   0.001100
     6  C    0.011979  -0.143718   0.006613   0.369766  -0.052312
     7  C   -0.047398  -0.041379   0.005327  -0.059626   0.012295
     8  H   -0.004521   0.013527  -0.000090   0.005183  -0.000202
     9  H    0.000000   0.000001  -0.000000   0.000005   0.000001
    10  H   -0.000000   0.000022  -0.000001  -0.000279  -0.000038
    11  H    0.000024   0.000825  -0.000026   0.001696   0.003106
    12  C    0.433402   0.556360  -0.024533  -0.110021   0.005890
    13  H    0.544564  -0.049519  -0.001982   0.004678  -0.000257
    14  C   -0.049519   4.947048   0.409866   0.410091  -0.038325
    15  H   -0.001982   0.409866   0.512669  -0.034226  -0.004326
    16  N    0.004678   0.410091  -0.034226   6.332224   0.381422
    17  H   -0.000257  -0.038325  -0.004326   0.381422   0.479697
 Mulliken charges:
               1
     1  C   -0.276348
     2  C   -0.072286
     3  C    0.233558
     4  O   -0.130041
     5  C   -0.248090
     6  C    0.243685
     7  C   -0.200149
     8  H    0.127312
     9  H    0.147938
    10  H    0.109387
    11  H    0.094780
    12  C   -0.164161
    13  H    0.109306
    14  C   -0.063054
    15  H    0.131358
    16  N   -0.255101
    17  H    0.211906
 Sum of Mulliken charges =  -0.00000
 Mulliken charges with hydrogens summed into heavy atoms:
               1
     1  C   -0.128410
     2  C    0.037101
     3  C    0.233558
     4  O   -0.130041
     5  C   -0.153310
     6  C    0.243685
     7  C   -0.072837
    12  C   -0.054855
    14  C    0.068304
    16  N   -0.043195
 Electronic spatial extent (au):  <R**2>=           1517.8719
 Charge=             -0.0000 electrons
 Dipole moment (field-independent basis, Debye):
    X=              0.4784    Y=              2.2828    Z=             -0.5163  Tot=              2.3889
 Quadrupole moment (field-independent basis, Debye-Ang):
   XX=            -47.5296   YY=            -56.2496   ZZ=            -61.8180
   XY=              0.0321   XZ=             -4.0236   YZ=             -3.8325
 Traceless Quadrupole moment (field-independent basis, Debye-Ang):
   XX=              7.6695   YY=             -1.0506   ZZ=             -6.6189
   XY=              0.0321   XZ=             -4.0236   YZ=             -3.8325
 Octapole moment (field-independent basis, Debye-Ang**2):
  XXX=              6.7115  YYY=             12.4327  ZZZ=              3.4022  XYY=             14.7349
  XXY=             11.4874  XXZ=             -4.8307  XZZ=              4.4794  YZZ=             -2.6552
  YYZ=              3.7928  XYZ=             -4.3850
 Hexadecapole moment (field-independent basis, Debye-Ang**3):
 XXXX=          -1191.8257 YYYY=           -547.8040 ZZZZ=           -123.5721 XXXY=             10.3464
 XXXZ=            -76.0511 YYYX=              1.7033 YYYZ=             -9.7670 ZZZX=            -41.9807
 ZZZY=              8.9193 XXYY=           -306.8937 XXZZ=           -264.6402 YYZZ=           -118.3063
 XXYZ=            -11.7666 YYXZ=            -20.2955 ZZXY=             15.4407
 N-N= 4.599970949078D+02 E-N=-1.942475222600D+03  KE= 4.370010385530D+02
 1\1\GINC-BHC0105\SP\RB3LYP\def2TZVP\C8H7N1O1\DHANAWAY\10-Jun-2022\0\\#
  sp B3LYP/Def2TZVP NoSymm\\int_initalOptXYZ_aligned_AlignedSp\\0,1\C,0
 ,-2.539942,0.430193,-0.041402\C,0,-1.624391,1.559711,-0.050683\C,0,-2.
 316553,-0.835429,-0.342472\O,0,-2.190686,-1.960581,-0.587808\C,0,-0.27
 8195,1.613422,-0.050441\C,0,0.698067,0.553826,0.057455\C,0,0.679922,-0
 .724665,0.599177\H,0,-0.160278,-1.196621,1.077289\H,0,-3.59103,0.62694
 6,0.143089\H,0,-2.141108,2.511451,-0.073262\H,0,0.146134,2.609939,-0.1
 32889\C,0,1.978559,-1.272364,0.478979\H,0,2.299231,-2.246222,0.809443\
 C,0,2.770088,-0.327685,-0.131244\H,0,3.809148,-0.351826,-0.411706\N,0,
 1.993832,0.770614,-0.370145\H,0,2.299011,1.600735,-0.847084\\Version=E
 S64L-G16RevA.03\HF=-439.1538539\RMSD=6.951e-09\Dipole=0.1882352,0.8981
 294,-0.2031197\Quadrupole=5.7020905,-0.7810686,-4.9210219,0.0238767,-2
 .9914406,-2.8493915\PG=C01 [X(C8H7N1O1)]\\@


 IF YOU GIVE EVERYONE A PIECE OF YOUR MIND,
 PRETTY SOON IT WILL BE ALL GONE.
 Job cpu time:       0 days  0 hours 16 minutes  1.5 seconds.
 Elapsed time:       0 days  0 hours  1 minutes 20.4 seconds.
 File lengths (MBytes):  RWF=     71 Int=      0 D2E=      0 Chk=     32 Scr=      1
 Normal termination of Gaussian 16 at Fri Jun 10 02:20:44 2022.
