 Entering Gaussian System, Link 0=g16
 Input=int_zmat_field_N75.gjf
 Output=int_zmat_field_N75.out
 Initial command:
 /software/gaussian/g16-a03/l1.exe "/local_scratch/11171337/Gau-5053.inp" -scrdir="/local_scratch/11171337/"
 Entering Link 1 = /software/gaussian/g16-a03/l1.exe PID=      5054.
  
 Copyright (c) 1988,1990,1992,1993,1995,1998,2003,2009,2016,
            Gaussian, Inc.  All Rights Reserved.
  
 This is part of the Gaussian(R) 16 program.  It is based on
 the Gaussian(R) 09 system (copyright 2009, Gaussian, Inc.),
 the Gaussian(R) 03 system (copyright 2003, Gaussian, Inc.),
 the Gaussian(R) 98 system (copyright 1998, Gaussian, Inc.),
 the Gaussian(R) 94 system (copyright 1995, Gaussian, Inc.),
 the Gaussian 92(TM) system (copyright 1992, Gaussian, Inc.),
 the Gaussian 90(TM) system (copyright 1990, Gaussian, Inc.),
 the Gaussian 88(TM) system (copyright 1988, Gaussian, Inc.),
 the Gaussian 86(TM) system (copyright 1986, Carnegie Mellon
 University), and the Gaussian 82(TM) system (copyright 1983,
 Carnegie Mellon University). Gaussian is a federally registered
 trademark of Gaussian, Inc.
  
 This software contains proprietary and confidential information,
 including trade secrets, belonging to Gaussian, Inc.
  
 This software is provided under written license and may be
 used, copied, transmitted, or stored only in accord with that
 written license.
  
 The following legend is applicable only to US Government
 contracts under FAR:
  
                    RESTRICTED RIGHTS LEGEND
  
 Use, reproduction and disclosure by the US Government is
 subject to restrictions as set forth in subparagraphs (a)
 and (c) of the Commercial Computer Software - Restricted
 Rights clause in FAR 52.227-19.
  
 Gaussian, Inc.
 340 Quinnipiac St., Bldg. 40, Wallingford CT 06492
  
  
 ---------------------------------------------------------------
 Warning -- This program may not be used in any manner that
 competes with the business of Gaussian, Inc. or will provide
 assistance to any competitor of Gaussian, Inc.  The licensee
 of this program is prohibited from giving any competitor of
 Gaussian, Inc. access to this program.  By using this program,
 the user acknowledges that Gaussian, Inc. is engaged in the
 business of creating and licensing software in the field of
 computational chemistry and represents and warrants to the
 licensee that it is not a competitor of Gaussian, Inc. and that
 it will not use this program in any manner prohibited above.
 ---------------------------------------------------------------
  

 Cite this work as:
 Gaussian 16, Revision A.03,
 M. J. Frisch, G. W. Trucks, H. B. Schlegel, G. E. Scuseria, 
 M. A. Robb, J. R. Cheeseman, G. Scalmani, V. Barone, 
 G. A. Petersson, H. Nakatsuji, X. Li, M. Caricato, A. V. Marenich, 
 J. Bloino, B. G. Janesko, R. Gomperts, B. Mennucci, H. P. Hratchian, 
 J. V. Ortiz, A. F. Izmaylov, J. L. Sonnenberg, D. Williams-Young, 
 F. Ding, F. Lipparini, F. Egidi, J. Goings, B. Peng, A. Petrone, 
 T. Henderson, D. Ranasinghe, V. G. Zakrzewski, J. Gao, N. Rega, 
 G. Zheng, W. Liang, M. Hada, M. Ehara, K. Toyota, R. Fukuda, 
 J. Hasegawa, M. Ishida, T. Nakajima, Y. Honda, O. Kitao, H. Nakai, 
 T. Vreven, K. Throssell, J. A. Montgomery, Jr., J. E. Peralta, 
 F. Ogliaro, M. J. Bearpark, J. J. Heyd, E. N. Brothers, K. N. Kudin, 
 V. N. Staroverov, T. A. Keith, R. Kobayashi, J. Normand, 
 K. Raghavachari, A. P. Rendell, J. C. Burant, S. S. Iyengar, 
 J. Tomasi, M. Cossi, J. M. Millam, M. Klene, C. Adamo, R. Cammi, 
 J. W. Ochterski, R. L. Martin, K. Morokuma, O. Farkas, 
 J. B. Foresman, and D. J. Fox, Gaussian, Inc., Wallingford CT, 2016.
 
 ******************************************
 Gaussian 16:  ES64L-G16RevA.03 25-Dec-2016
                10-Jun-2022 
 ******************************************
 %nprocshared=12
 Will use up to   12 processors via shared memory.
 %chk=checkpoint.chk
 %mem=12GB
 ----------------------------------------------------------------------
 # Opt=(Z-matrix, MaxStep=10) B3LYP/Def2TZVP geom=allcheckpoint guess=r
 ead Field=read NoSymm freq=noraman pop=none
 ----------------------------------------------------------------------
 1/8=10,10=7,18=40,26=3,29=7,38=1/1,3;
 2/12=2,15=1,29=3,40=1/2;
 3/5=44,7=101,11=2,14=-6,25=1,30=1,71=1,74=-5,116=-2/1,2,3;
 4/5=1/1;
 5/5=2,38=6/2;
 7/29=1,30=1/1,2,3,16;
 1/8=10,10=7,18=40,26=3/3(2);
 2/15=1,29=3/2;
 99//99;
 2/15=1,29=3/2;
 3/5=44,7=101,11=2,14=-2,25=1,30=1,71=1,74=-5/1,2,3;
 4/5=5,16=3,69=1/1;
 5/5=2,38=5/2;
 7/30=1/1,2,3,16;
 1/8=10,18=40,26=3/3(-5);
 2/15=1,29=3/2;
 99/9=1/99;
 Structure from the checkpoint file:  "checkpoint.chk"
 ------------------
 int_zmat_initalOpt
 ------------------
 Charge =  0 Multiplicity = 1
 Z-Matrix found in chk file.
 H
 C,1,R2
 C,2,R3,1,A3
 C,2,R4,1,A4,3,D4,0
 H,3,R5,2,A5,1,D5,0
 C,3,R6,2,A6,5,D6,0
 O,4,R7,2,A7,1,D7,0
 H,4,R8,2,A8,7,D8,0
 H,4,R9,2,A9,7,D9,0
 H,6,R10,3,A10,2,D10,0
 C,6,R11,3,A11,10,D11,0
 H,11,R12,6,A12,3,D12,0
      Variables:
 R2=1.0819706
 R3=1.33553199
 R4=1.50052734
 R5=1.08256386
 R6=1.45477749
 R7=1.44576796
 R8=1.0888278
 R9=1.10293148
 R10=1.08003931
 R11=1.34055294
 R12=1.08266041
 A3=122.55153675
 A4=118.77548815
 A5=121.22049604
 A6=119.24458405
 A7=112.40188985
 A8=112.21961016
 A9=111.0121999
 A10=121.49071725
 A11=118.22698191
 A12=124.3092805
 D4=-177.59771722
 D5=1.10442324
 D6=175.53896584
 D7=-150.54900408
 D8=118.51705198
 D9=-120.48513157
 D10=174.30850864
 D11=171.86453146
 D12=-168.95165946
 Recover connectivity data from disk.

 GradGradGradGradGradGradGradGradGradGradGradGradGradGradGradGradGradGrad
 Berny optimization.
 Initialization pass.
                       ----------------------------
                       !    Initial Parameters    !
                       ! (Angstroms and Degrees)  !
 ----------------------                            ----------------------
 !      Name          Value   Derivative information (Atomic Units)     !
 ------------------------------------------------------------------------
 !       R2          1.082    estimate D2E/DX2                          !
 !       R3          1.3355   estimate D2E/DX2                          !
 !       R4          1.5005   estimate D2E/DX2                          !
 !       R5          1.0826   estimate D2E/DX2                          !
 !       R6          1.4548   estimate D2E/DX2                          !
 !       R7          1.4458   estimate D2E/DX2                          !
 !       R8          1.0888   estimate D2E/DX2                          !
 !       R9          1.1029   estimate D2E/DX2                          !
 !       R10         1.08     estimate D2E/DX2                          !
 !       R11         1.3406   estimate D2E/DX2                          !
 !       R12         1.0827   estimate D2E/DX2                          !
 !       A3        122.5515   estimate D2E/DX2                          !
 !       A4        118.7755   estimate D2E/DX2                          !
 !       A5        121.2205   estimate D2E/DX2                          !
 !       A6        119.2446   estimate D2E/DX2                          !
 !       A7        112.4019   estimate D2E/DX2                          !
 !       A8        112.2196   estimate D2E/DX2                          !
 !       A9        111.0122   estimate D2E/DX2                          !
 !       A10       121.4907   estimate D2E/DX2                          !
 !       A11       118.227    estimate D2E/DX2                          !
 !       A12       124.3093   estimate D2E/DX2                          !
 !       D4       -177.5977   estimate D2E/DX2                          !
 !       D5          1.1044   estimate D2E/DX2                          !
 !       D6        175.539    estimate D2E/DX2                          !
 !       D7       -150.549    estimate D2E/DX2                          !
 !       D8        118.5171   estimate D2E/DX2                          !
 !       D9       -120.4851   estimate D2E/DX2                          !
 !       D10       174.3085   estimate D2E/DX2                          !
 !       D11       171.8645   estimate D2E/DX2                          !
 !       D12      -168.9517   estimate D2E/DX2                          !
 ------------------------------------------------------------------------
 Trust Radius=1.00D-01 FncErr=1.00D-07 GrdErr=1.00D-06 EigMax=2.50D+02 EigMin=1.00D-04
 Number of steps in this run=     40 maximum allowed number of steps=    100.
 GradGradGradGradGradGradGradGradGradGradGradGradGradGradGradGradGradGrad

 ---------------------------------------------------------------------------------------------------
                            Z-MATRIX (ANGSTROMS AND DEGREES)
   CD    Cent   Atom    N1       Length/X        N2       Alpha/Y        N3        Beta/Z          J
 ---------------------------------------------------------------------------------------------------
      1      1  H 
      2      2  C        1   1.081971(     1)
      3      3  C        2   1.335532(     2)      1  122.552(    12)
      4      4  C        2   1.500527(     3)      1  118.775(    13)      3 -177.598(    22)      0
      5      5  H        3   1.082564(     4)      2  121.220(    14)      1    1.104(    23)      0
      6      6  C        3   1.454777(     5)      2  119.245(    15)      5  175.539(    24)      0
      7      7  O        4   1.445768(     6)      2  112.402(    16)      1 -150.549(    25)      0
      8      8  H        4   1.088828(     7)      2  112.220(    17)      7  118.517(    26)      0
      9      9  H        4   1.102931(     8)      2  111.012(    18)      7 -120.485(    27)      0
     10     10  H        6   1.080039(     9)      3  121.491(    19)      2  174.309(    28)      0
     11     11  C        6   1.340553(    10)      3  118.227(    20)     10  171.865(    29)      0
     12     12  H       11   1.082660(    11)      6  124.309(    21)      3 -168.952(    30)      0
 ---------------------------------------------------------------------------------------------------
                         Z-Matrix orientation:                         
 ---------------------------------------------------------------------
 Center     Atomic      Atomic             Coordinates (Angstroms)
 Number     Number       Type             X           Y           Z
 ---------------------------------------------------------------------
      1          1           0        0.000000    0.000000    0.000000
      2          6           0        0.000000    0.000000    1.081971
      3          6           0        1.125730    0.000000    1.800564
      4          6           0       -1.314075   -0.055129    1.804293
      5          1           0        2.096744    0.017844    1.322277
      6          6           0        1.042983    0.074321    3.251084
      7          8           0       -1.264342    0.604744    3.089726
      8          1           0       -2.108052    0.446653    1.253509
      9          1           0       -1.626198   -1.098552    1.978378
     10          1           0        1.922513   -0.014249    3.871622
     11          6           0       -0.128669    0.421315    3.802363
     12          1           0       -0.260789    0.673166    4.847001
 ---------------------------------------------------------------------
                    Distance matrix (angstroms):
                    1          2          3          4          5
     1  H    0.000000
     2  C    1.081971   0.000000
     3  C    2.123511   1.335532   0.000000
     4  C    2.232780   1.500527   2.440431   0.000000
     5  H    2.478925   2.110545   1.082564   3.445483   0.000000
     6  C    3.415096   2.407984   1.454777   2.768698   2.198613
     7  O    3.392740   2.448542   2.782103   1.445768   3.842555
     8  H    2.492924   2.161668   3.310003   1.088828   4.227164
     9  H    2.786631   2.157517   2.968424   1.102931   3.941713
    10  H    4.322698   3.387981   2.219087   3.840706   2.555494
    11  C    3.827796   2.755829   2.399629   2.371596   3.356498
    12  H    4.900467   3.833616   3.414142   3.301197   4.290814
                    6          7          8          9         10
     6  C    0.000000
     7  O    2.373001   0.000000
     8  H    3.749394   2.026951   0.000000
     9  H    3.181185   2.065732   1.773493   0.000000
    10  H    1.080039   3.339245   4.828291   4.165745   0.000000
    11  C    1.340553   1.353236   3.227267   2.807045   2.098061
    12  H    2.146016   2.024800   4.046834   3.637626   2.488113
                   11         12
    11  C    0.000000
    12  H    1.082660   0.000000
 Symmetry turned off by external request.
 Stoichiometry    C5H6O
 Framework group  C1[X(C5H6O)]
 Deg. of freedom    30
 Full point group                 C1      NOp   1
 Rotational constants (GHZ):           5.5762605           5.3689573           2.8454740
 Standard basis: def2TZVP (5D, 7F)
 The following finite field(s) will be applied:
 An electric field of             -0.0017 -0.0049  0.0054
   222 basis functions,   354 primitive gaussians,   252 cartesian basis functions
    22 alpha electrons       22 beta electrons
       nuclear repulsion energy       223.4645027599 Hartrees.
 NAtoms=   12 NActive=   12 NUniq=   12 SFac= 1.00D+00 NAtFMM=   60 NAOKFM=F Big=F
 Integral buffers will be    131072 words long.
 Raffenetti 2 integral format.
 Two-electron integral symmetry is turned off.
 One-electron integrals computed using PRISM.
   1 Symmetry operations used in ECPInt.
 ECPInt:  NShTT=    4095 NPrTT=   12396 LenC2=    4075 LenP2D=   10418.
 LDataN:  DoStor=T MaxTD1= 6 Len=  172
 NBasis=   222 RedAO= T EigKep=  9.46D-05  NBF=   222
 NBsUse=   222 1.00D-06 EigRej= -1.00D+00 NBFU=   222
 The nuclear repulsion energy is now       224.5277939978 hartrees.
 Initial guess from the checkpoint file:  "checkpoint.chk"
 B after Tr=     0.000000    0.000000    0.000000
         Rot=    1.000000   -0.000000    0.000000    0.000000 Ang=   0.00 deg.
 Keep R1 ints in memory in canonical form, NReq=319363885.
 Requested convergence on RMS density matrix=1.00D-08 within 128 cycles.
 Requested convergence on MAX density matrix=1.00D-06.
 Requested convergence on             energy=1.00D-06.
 No special actions if energy rises.
 SCF Done:  E(RB3LYP) =  -269.424447033     A.U. after   10 cycles
            NFock= 10  Conv=0.90D-08     -V/T= 2.0050
   1 Symmetry operations used in ECPInt.
 ECPInt:  NShTT=    4095 NPrTT=   12396 LenC2=    4075 LenP2D=   10418.
 LDataN:  DoStor=T MaxTD1= 7 Len=  274
 Calling FoFJK, ICntrl=      2127 FMM=F ISym2X=0 I1Cent= 0 IOpClX= 0 NMat=1 NMatS=1 NMatT=0.
 -------------------------------------------------------------------
 Center     Atomic                   Forces (Hartrees/Bohr)
 Number     Number              X              Y              Z
 -------------------------------------------------------------------
      1        1          -0.000058784    0.001267752    0.000057300
      2        6           0.000138669   -0.001920428    0.000205309
      3        6           0.000231284    0.000259580   -0.000471223
      4        6           0.000197765    0.000919230   -0.000448973
      5        1          -0.000112725    0.000175615   -0.000042719
      6        6          -0.000457507   -0.000182840    0.000228232
      7        8          -0.000301020   -0.000256763    0.000476306
      8        1           0.000133764    0.000040747   -0.000035540
      9        1          -0.000081563   -0.000425893    0.000103066
     10        1           0.000160433    0.000203664   -0.000012939
     11        6           0.000099176   -0.000347137   -0.000183469
     12        1           0.000050509    0.000266473    0.000124650
 -------------------------------------------------------------------
 Cartesian Forces:  Max     0.001920428 RMS     0.000473038
 -----------------------------------------------------------------------------------------------
                       Internal Coordinate Forces (Hartree/Bohr or radian)
  Cent   Atom   N1       Length/X         N2         Alpha/Y        N3         Beta/Z          J
 -----------------------------------------------------------------------------------------------
      1  H 
      2  C        1  -0.000057(     1)
      3  C        2  -0.000217(     2)      1  -0.000888(    12)
      4  C        2   0.000080(     3)      1  -0.000801(    13)      3  -0.000440(    22)     0
      5  H        3  -0.000079(     4)      2  -0.000184(    14)      1   0.000118(    23)     0
      6  C        3   0.000161(     5)      2  -0.000047(    15)      5  -0.000190(    24)     0
      7  O        4   0.000296(     6)      2   0.001151(    16)      1  -0.000862(    25)     0
      8  H        4  -0.000061(     7)      2  -0.000251(    17)      7  -0.000091(    26)     0
      9  H        4   0.000442(     8)      2  -0.000049(    18)      7   0.000098(    27)     0
     10  H        6   0.000107(     9)      3  -0.000161(    19)      2   0.000410(    28)     0
     11  C        6  -0.000176(    10)      3   0.000038(    20)     10   0.000022(    29)     0
     12  H       11   0.000176(    11)      6  -0.000057(    21)      3   0.000405(    30)     0
 -----------------------------------------------------------------------------------------------
 Internal  Forces:  Max     0.001151169 RMS     0.000394703

 GradGradGradGradGradGradGradGradGradGradGradGradGradGradGradGradGradGrad
 Berny optimization.
 Search for a local minimum.
 Step number   1 out of a maximum of   40
 All quantities printed in internal units (Hartrees-Bohrs-Radians)
 Second derivative matrix not updated -- first step.
 ITU=  0
     Eigenvalues ---    0.00752   0.03144   0.05835   0.07119   0.07895
     Eigenvalues ---    0.10411   0.14420   0.18146   0.20397   0.22543
     Eigenvalues ---    0.23651   0.25154   0.28929   0.33360   0.33655
     Eigenvalues ---    0.34947   0.35675   0.35686   0.35757   0.35990
     Eigenvalues ---    0.37407   0.38072   0.39461   0.51478   0.52961
     Eigenvalues ---    0.56996   0.59606   2.40778   3.27875  40.20160
 RFO step:  Lambda=-2.61507387D-05 EMin= 7.52456750D-03
 Linear search not attempted -- first point.
 Variable       Old X    -DE/DX   Delta X   Delta X   Delta X     New X
                                 (Linear)    (Quad)   (Total)
    R2        2.04463  -0.00006   0.00000  -0.00016  -0.00016   2.04447
    R3        2.52379  -0.00022   0.00000  -0.00052  -0.00052   2.52327
    R4        2.83559   0.00008   0.00000   0.00002   0.00002   2.83561
    R5        2.04575  -0.00008   0.00000  -0.00020  -0.00020   2.04555
    R6        2.74913   0.00016   0.00000   0.00039   0.00039   2.74952
    R7        2.73211   0.00030   0.00000   0.00080   0.00080   2.73290
    R8        2.05759  -0.00006   0.00000  -0.00018  -0.00018   2.05740
    R9        2.08424   0.00044   0.00000   0.00133   0.00133   2.08556
   R10        2.04098   0.00011   0.00000   0.00031   0.00031   2.04129
   R11        2.53328  -0.00018   0.00000  -0.00008  -0.00008   2.53320
   R12        2.04593   0.00018   0.00000   0.00050   0.00050   2.04644
    A3        2.13893  -0.00089   0.00000  -0.00183  -0.00183   2.13710
    A4        2.07302  -0.00080   0.00000  -0.00005  -0.00005   2.07298
    A5        2.11570  -0.00018   0.00000  -0.00073  -0.00073   2.11497
    A6        2.08121  -0.00005   0.00000   0.00010   0.00010   2.08132
    A7        1.96178   0.00115   0.00000   0.00329   0.00329   1.96507
    A8        1.95860  -0.00025   0.00000  -0.00016  -0.00016   1.95844
    A9        1.93753  -0.00005   0.00000  -0.00305  -0.00305   1.93447
   A10        2.12041  -0.00016   0.00000  -0.00152  -0.00152   2.11889
   A11        2.06345   0.00004   0.00000   0.00164   0.00164   2.06509
   A12        2.16961  -0.00006   0.00000  -0.00092  -0.00092   2.16869
    D4       -3.09966  -0.00044   0.00000   0.01654   0.01654  -3.08313
    D5        0.01928   0.00012   0.00000   0.01786   0.01786   0.03713
    D6        3.06373  -0.00019   0.00000   0.00030   0.00030   3.06403
    D7       -2.62758  -0.00086   0.00000  -0.02612  -0.02612  -2.65370
    D8        2.06851  -0.00009   0.00000   0.00376   0.00376   2.07227
    D9       -2.10286   0.00010   0.00000   0.00165   0.00165  -2.10121
   D10        3.04226   0.00041   0.00000   0.00721   0.00721   3.04947
   D11        2.99960   0.00002   0.00000   0.00034   0.00034   2.99994
   D12       -2.94876   0.00040   0.00000  -0.00300  -0.00300  -2.95176
         Item               Value     Threshold  Converged?
 Maximum Force            0.001151     0.000450     NO 
 RMS     Force            0.000395     0.000300     NO 
 Maximum Displacement     0.026121     0.001800     NO 
 RMS     Displacement     0.006797     0.001200     NO 
 Predicted change in Energy=-1.309352D-05
 GradGradGradGradGradGradGradGradGradGradGradGradGradGradGradGradGradGrad

 ---------------------------------------------------------------------------------------------------
                            Z-MATRIX (ANGSTROMS AND DEGREES)
   CD    Cent   Atom    N1       Length/X        N2       Alpha/Y        N3        Beta/Z          J
 ---------------------------------------------------------------------------------------------------
      1      1  H 
      2      2  C        1   1.081886(     1)
      3      3  C        2   1.335259(     2)      1  122.447(    12)
      4      4  C        2   1.500539(     3)      1  118.773(    13)      3 -176.650(    22)      0
      5      5  H        3   1.082460(     4)      2  121.179(    14)      1    2.128(    23)      0
      6      6  C        3   1.454986(     5)      2  119.251(    15)      5  175.556(    24)      0
      7      7  O        4   1.446190(     6)      2  112.590(    16)      1 -152.046(    25)      0
      8      8  H        4   1.088730(     7)      2  112.211(    17)      7  118.732(    26)      0
      9      9  H        4   1.103633(     8)      2  110.837(    18)      7 -120.391(    27)      0
     10     10  H        6   1.080204(     9)      3  121.404(    19)      2  174.722(    28)      0
     11     11  C        6   1.340510(    10)      3  118.321(    20)     10  171.884(    29)      0
     12     12  H       11   1.082927(    11)      6  124.257(    21)      3 -169.124(    30)      0
 ---------------------------------------------------------------------------------------------------
                         Z-Matrix orientation:                         
 ---------------------------------------------------------------------
 Center     Atomic      Atomic             Coordinates (Angstroms)
 Number     Number       Type             X           Y           Z
 ---------------------------------------------------------------------
      1          1           0        0.000000    0.000000    0.000000
      2          6           0        0.000000    0.000000    1.081886
      3          6           0        1.126815    0.000000    1.798269
      4          6           0       -1.313028   -0.076857    1.804152
      5          1           0        2.096256    0.034382    1.317934
      6          6           0        1.046254    0.051309    3.250116
      7          8           0       -1.268977    0.552708    3.105372
      8          1           0       -2.110249    0.431007    1.263925
      9          1           0       -1.617400   -1.126954    1.954682
     10          1           0        1.929690   -0.031717    3.866143
     11          6           0       -0.128957    0.369541    3.810987
     12          1           0       -0.260752    0.600399    4.860780
 ---------------------------------------------------------------------
                    Distance matrix (angstroms):
                    1          2          3          4          5
     1  H    0.000000
     2  C    1.081886   0.000000
     3  C    2.122141   1.335259   0.000000
     4  C    2.232692   1.500539   2.441060   0.000000
     5  H    2.476372   2.109784   1.082460   3.445576   0.000000
     6  C    3.414753   2.408008   1.454986   2.770099   2.199118
     7  O    3.399872   2.451589   2.784569   1.446190   3.845568
     8  H    2.497283   2.161494   3.309059   1.088730   4.225507
     9  H    2.776111   2.155871   2.970725   1.103633   3.942764
    10  H    4.321085   3.387742   2.218495   3.843054   2.554503
    11  C    3.831033   2.757025   2.400949   2.372485   3.358454
    12  H    4.904656   3.835168   3.415376   3.302868   4.292740
                    6          7          8          9         10
     6  C    0.000000
     7  O    2.373320   0.000000
     8  H    3.748685   2.028171   0.000000
     9  H    3.187712   2.065612   1.774061   0.000000
    10  H    1.080204   3.339431   4.827708   4.175533   0.000000
    11  C    1.340510   1.353177   3.227511   2.810841   2.098113
    12  H    2.145694   2.024907   4.048049   3.642753   2.487350
                   11         12
    11  C    0.000000
    12  H    1.082927   0.000000
 Symmetry turned off by external request.
 Stoichiometry    C5H6O
 Framework group  C1[X(C5H6O)]
 Deg. of freedom    30
 Full point group                 C1      NOp   1
 Rotational constants (GHZ):           5.5769043           5.3641877           2.8415809
 Standard basis: def2TZVP (5D, 7F)
 The following finite field(s) will be applied:
 An electric field of             -0.0017 -0.0049  0.0054
   222 basis functions,   354 primitive gaussians,   252 cartesian basis functions
    22 alpha electrons       22 beta electrons
       nuclear repulsion energy       223.4124222319 Hartrees.
 NAtoms=   12 NActive=   12 NUniq=   12 SFac= 1.00D+00 NAtFMM=   60 NAOKFM=F Big=F
 Integral buffers will be    131072 words long.
 Raffenetti 2 integral format.
 Two-electron integral symmetry is turned off.
 One-electron integrals computed using PRISM.
   1 Symmetry operations used in ECPInt.
 ECPInt:  NShTT=    4095 NPrTT=   12396 LenC2=    4075 LenP2D=   10417.
 LDataN:  DoStor=T MaxTD1= 6 Len=  172
 NBasis=   222 RedAO= T EigKep=  9.42D-05  NBF=   222
 NBsUse=   222 1.00D-06 EigRej= -1.00D+00 NBFU=   222
 The nuclear repulsion energy is now       224.4874345752 hartrees.
 Initial guess from the checkpoint file:  "checkpoint.chk"
 B after Tr=    -0.005112    0.038752    0.000832
         Rot=    0.999944   -0.009001   -0.000909   -0.005488 Ang=  -1.21 deg.
 ExpMin= 9.52D-02 ExpMax= 2.70D+04 ExpMxC= 9.22D+02 IAcc=2 IRadAn=         4 AccDes= 0.00D+00
 Harris functional with IExCor=  402 and IRadAn=       4 diagonalized for initial guess.
 HarFok:  IExCor=  402 AccDes= 0.00D+00 IRadAn=         4 IDoV= 1 UseB2=F ITyADJ=14
 ICtDFT=  3500011 ScaDFX=  1.000000  1.000000  1.000000  1.000000
 FoFCou: FMM=F IPFlag=           0 FMFlag=      100000 FMFlg1=           0
         NFxFlg=           0 DoJE=T BraDBF=F KetDBF=T FulRan=T
         wScrn=  0.000000 ICntrl=       500 IOpCl=  0 I1Cent=   200000004 NGrid=           0
         NMat0=    1 NMatS0=      1 NMatT0=    0 NMatD0=    1 NMtDS0=    0 NMtDT0=    0
 Symmetry not used in FoFCou.
 Keep R1 ints in memory in canonical form, NReq=319363885.
 Requested convergence on RMS density matrix=1.00D-08 within 128 cycles.
 Requested convergence on MAX density matrix=1.00D-06.
 Requested convergence on             energy=1.00D-06.
 No special actions if energy rises.
 Integral accuracy reduced to 1.0D-05 until final iterations.
 Initial convergence to 1.0D-05 achieved.  Increase integral accuracy.
 SCF Done:  E(RB3LYP) =  -269.424457543     A.U. after   10 cycles
            NFock= 10  Conv=0.55D-08     -V/T= 2.0050
   1 Symmetry operations used in ECPInt.
 ECPInt:  NShTT=    4095 NPrTT=   12396 LenC2=    4075 LenP2D=   10417.
 LDataN:  DoStor=T MaxTD1= 7 Len=  274
 Calling FoFJK, ICntrl=      2127 FMM=F ISym2X=0 I1Cent= 0 IOpClX= 0 NMat=1 NMatS=1 NMatT=0.
 -------------------------------------------------------------------
 Center     Atomic                   Forces (Hartrees/Bohr)
 Number     Number              X              Y              Z
 -------------------------------------------------------------------
      1        1          -0.000308540    0.001855663   -0.000016667
      2        6           0.000219294   -0.002469591    0.000454772
      3        6           0.000223787    0.000686991   -0.000273548
      4        6           0.000095962   -0.000085207   -0.000319845
      5        1          -0.000030534   -0.000085078    0.000003747
      6        6          -0.000313698    0.000032011    0.000296379
      7        8          -0.000295257   -0.000261891   -0.000008773
      8        1           0.000043288    0.000130612    0.000025360
      9        1          -0.000196288   -0.000047076   -0.000062465
     10        1          -0.000005279    0.000006290    0.000014206
     11        6           0.000565264    0.000120096   -0.000090848
     12        1           0.000002002    0.000117180   -0.000022318
 -------------------------------------------------------------------
 Cartesian Forces:  Max     0.002469591 RMS     0.000562252
 -----------------------------------------------------------------------------------------------
                       Internal Coordinate Forces (Hartree/Bohr or radian)
  Cent   Atom   N1       Length/X         N2         Alpha/Y        N3         Beta/Z          J
 -----------------------------------------------------------------------------------------------
      1  H 
      2  C        1   0.000017(     1)
      3  C        2   0.000334(     2)      1  -0.001802(    12)
      4  C        2   0.000146(     3)      1  -0.002286(    13)      3   0.000332(    22)     0
      5  H        3  -0.000032(     4)      2  -0.000018(    14)      1  -0.001764(    23)     0
      6  C        3   0.000193(     5)      2   0.001033(    15)      5  -0.001616(    24)     0
      7  O        4  -0.000131(     6)      2   0.000941(    16)      1  -0.000901(    25)     0
      8  H        4   0.000017(     7)      2  -0.000086(    17)      7  -0.000252(    26)     0
      9  H        4   0.000090(     8)      2   0.000250(    18)      7  -0.000290(    27)     0
     10  H        6   0.000003(     9)      3   0.000031(    19)      2  -0.000844(    28)     0
     11  C        6  -0.000488(    10)      3   0.000213(    20)     10  -0.000853(    29)     0
     12  H       11   0.000003(    11)      6   0.000037(    21)      3   0.000199(    30)     0
 -----------------------------------------------------------------------------------------------
 Internal  Forces:  Max     0.002285947 RMS     0.000801047

 GradGradGradGradGradGradGradGradGradGradGradGradGradGradGradGradGradGrad
 Berny optimization.
 Search for a local minimum.
 Step number   2 out of a maximum of   40
 All quantities printed in internal units (Hartrees-Bohrs-Radians)
 Update second derivatives using D2CorN and points    1    2
 DE= -1.05D-05 DEPred=-1.31D-05 R= 8.03D-01
 TightC=F SS=  1.41D+00  RLast= 3.72D-02 DXNew= 1.6818D-01 1.1169D-01
 Trust test= 8.03D-01 RLast= 3.72D-02 DXMaxT set to 1.12D-01
 ITU=  1  0
     Eigenvalues ---    0.01442   0.03082   0.05841   0.07140   0.07930
     Eigenvalues ---    0.10440   0.14350   0.18054   0.20355   0.22410
     Eigenvalues ---    0.23652   0.25151   0.28918   0.33351   0.33651
     Eigenvalues ---    0.34947   0.35675   0.35686   0.35757   0.35990
     Eigenvalues ---    0.37408   0.38062   0.39464   0.51498   0.52951
     Eigenvalues ---    0.56997   0.59606   2.40754   3.27921  40.20159
 RFO step:  Lambda=-1.13667361D-05 EMin= 1.44153575D-02
 Quartic linear search produced a step of -0.16566.
 Variable       Old X    -DE/DX   Delta X   Delta X   Delta X     New X
                                 (Linear)    (Quad)   (Total)
    R2        2.04447   0.00002   0.00003   0.00001   0.00003   2.04450
    R3        2.52327   0.00033   0.00009  -0.00005   0.00003   2.52331
    R4        2.83561   0.00015  -0.00000  -0.00030  -0.00030   2.83531
    R5        2.04555  -0.00003   0.00003  -0.00011  -0.00008   2.04547
    R6        2.74952   0.00019  -0.00007   0.00036   0.00030   2.74982
    R7        2.73290  -0.00013  -0.00013   0.00023   0.00010   2.73301
    R8        2.05740   0.00002   0.00003   0.00003   0.00006   2.05746
    R9        2.08556   0.00009  -0.00022   0.00044   0.00022   2.08578
   R10        2.04129   0.00000  -0.00005   0.00007   0.00001   2.04130
   R11        2.53320  -0.00049   0.00001  -0.00043  -0.00041   2.53278
   R12        2.04644   0.00000  -0.00008   0.00009   0.00001   2.04644
    A3        2.13710  -0.00180   0.00030   0.00024   0.00055   2.13764
    A4        2.07298  -0.00229   0.00001  -0.00183  -0.00182   2.07115
    A5        2.11497  -0.00002   0.00012   0.00001   0.00013   2.11510
    A6        2.08132   0.00103  -0.00002  -0.00047  -0.00049   2.08083
    A7        1.96507   0.00094  -0.00054   0.00023  -0.00032   1.96475
    A8        1.95844  -0.00009   0.00003  -0.00108  -0.00106   1.95739
    A9        1.93447   0.00025   0.00051   0.00137   0.00188   1.93635
   A10        2.11889   0.00003   0.00025  -0.00014   0.00011   2.11900
   A11        2.06509   0.00021  -0.00027   0.00006  -0.00022   2.06488
   A12        2.16869   0.00004   0.00015  -0.00029  -0.00014   2.16855
    D4       -3.08313   0.00033  -0.00274  -0.00569  -0.00843  -3.09156
    D5        0.03713  -0.00176  -0.00296  -0.00391  -0.00687   0.03027
    D6        3.06403  -0.00162  -0.00005  -0.00278  -0.00283   3.06120
    D7       -2.65370  -0.00090   0.00433   0.00195   0.00628  -2.64742
    D8        2.07227  -0.00025  -0.00062  -0.00212  -0.00274   2.06952
    D9       -2.10121  -0.00029  -0.00027  -0.00223  -0.00250  -2.10371
   D10        3.04947  -0.00084  -0.00120   0.00474   0.00355   3.05302
   D11        2.99994  -0.00085  -0.00006  -0.00289  -0.00295   2.99699
   D12       -2.95176   0.00020   0.00050   0.00399   0.00449  -2.94728
         Item               Value     Threshold  Converged?
 Maximum Force            0.002286     0.000450     NO 
 RMS     Force            0.000801     0.000300     NO 
 Maximum Displacement     0.008434     0.001800     NO 
 RMS     Displacement     0.002769     0.001200     NO 
 Predicted change in Energy=-7.086146D-06
 GradGradGradGradGradGradGradGradGradGradGradGradGradGradGradGradGradGrad

 ---------------------------------------------------------------------------------------------------
                            Z-MATRIX (ANGSTROMS AND DEGREES)
   CD    Cent   Atom    N1       Length/X        N2       Alpha/Y        N3        Beta/Z          J
 ---------------------------------------------------------------------------------------------------
      1      1  H 
      2      2  C        1   1.081903(     1)
      3      3  C        2   1.335276(     2)      1  122.478(    12)
      4      4  C        2   1.500380(     3)      1  118.668(    13)      3 -177.133(    22)      0
      5      5  H        3   1.082418(     4)      2  121.186(    14)      1    1.734(    23)      0
      6      6  C        3   1.455144(     5)      2  119.223(    15)      5  175.394(    24)      0
      7      7  O        4   1.446244(     6)      2  112.572(    16)      1 -151.686(    25)      0
      8      8  H        4   1.088760(     7)      2  112.150(    17)      7  118.575(    26)      0
      9      9  H        4   1.103748(     8)      2  110.945(    18)      7 -120.534(    27)      0
     10     10  H        6   1.080211(     9)      3  121.410(    19)      2  174.925(    28)      0
     11     11  C        6   1.340291(    10)      3  118.309(    20)     10  171.715(    29)      0
     12     12  H       11   1.082930(    11)      6  124.249(    21)      3 -168.867(    30)      0
 ---------------------------------------------------------------------------------------------------
                         Z-Matrix orientation:                         
 ---------------------------------------------------------------------
 Center     Atomic      Atomic             Coordinates (Angstroms)
 Number     Number       Type             X           Y           Z
 ---------------------------------------------------------------------
      1          1           0        0.000000    0.000000    0.000000
      2          6           0        0.000000    0.000000    1.081903
      3          6           0        1.126438    0.000000    1.798911
      4          6           0       -1.314802   -0.065840    1.801696
      5          1           0        2.096283    0.028022    1.319073
      6          6           0        1.044669    0.063634    3.250362
      7          8           0       -1.269631    0.570628    3.099575
      8          1           0       -2.106786    0.446048    1.257517
      9          1           0       -1.628170   -1.112867    1.955943
     10          1           0        1.927360   -0.015661    3.867959
     11          6           0       -0.129547    0.391826    3.807034
     12          1           0       -0.260690    0.635828    4.853936
 ---------------------------------------------------------------------
                    Distance matrix (angstroms):
                    1          2          3          4          5
     1  H    0.000000
     2  C    1.081903   0.000000
     3  C    2.122485   1.335276   0.000000
     4  C    2.231400   1.500380   2.442129   0.000000
     5  H    2.476921   2.109842   1.082418   3.446336   0.000000
     6  C    3.414708   2.407819   1.455144   2.771732   2.199326
     7  O    3.397786   2.451240   2.785407   1.446244   3.846295
     8  H    2.493763   2.160635   3.308444   1.088760   4.224253
     9  H    2.777611   2.157164   2.975062   1.103748   3.946996
    10  H    4.321581   3.387782   2.218711   3.844941   2.554850
    11  C    3.829337   2.756202   2.400747   2.373957   3.358069
    12  H    4.902340   3.834119   3.414905   3.304491   4.291853
                    6          7          8          9         10
     6  C    0.000000
     7  O    2.373977   0.000000
     8  H    3.748245   2.027197   0.000000
     9  H    3.194329   2.066543   1.774004   0.000000
    10  H    1.080211   3.339895   4.827205   4.183474   0.000000
    11  C    1.340291   1.353610   3.226833   2.817181   2.097767
    12  H    2.145418   2.024845   4.047014   3.650520   2.486795
                   11         12
    11  C    0.000000
    12  H    1.082930   0.000000
 Symmetry turned off by external request.
 Stoichiometry    C5H6O
 Framework group  C1[X(C5H6O)]
 Deg. of freedom    30
 Full point group                 C1      NOp   1
 Rotational constants (GHZ):           5.5738422           5.3647545           2.8404237
 Standard basis: def2TZVP (5D, 7F)
 The following finite field(s) will be applied:
 An electric field of             -0.0017 -0.0049  0.0054
   222 basis functions,   354 primitive gaussians,   252 cartesian basis functions
    22 alpha electrons       22 beta electrons
       nuclear repulsion energy       223.3888015906 Hartrees.
 NAtoms=   12 NActive=   12 NUniq=   12 SFac= 1.00D+00 NAtFMM=   60 NAOKFM=F Big=F
 Integral buffers will be    131072 words long.
 Raffenetti 2 integral format.
 Two-electron integral symmetry is turned off.
 One-electron integrals computed using PRISM.
   1 Symmetry operations used in ECPInt.
 ECPInt:  NShTT=    4095 NPrTT=   12396 LenC2=    4075 LenP2D=   10417.
 LDataN:  DoStor=T MaxTD1= 6 Len=  172
 NBasis=   222 RedAO= T EigKep=  9.43D-05  NBF=   222
 NBsUse=   222 1.00D-06 EigRej= -1.00D+00 NBFU=   222
 The nuclear repulsion energy is now       224.4585205051 hartrees.
 Initial guess from the checkpoint file:  "checkpoint.chk"
 B after Tr=     0.002048   -0.013733   -0.001415
         Rot=    0.999991    0.003631    0.000532    0.001985 Ang=   0.48 deg.
 Keep R1 ints in memory in canonical form, NReq=319363885.
 Requested convergence on RMS density matrix=1.00D-08 within 128 cycles.
 Requested convergence on MAX density matrix=1.00D-06.
 Requested convergence on             energy=1.00D-06.
 No special actions if energy rises.
 SCF Done:  E(RB3LYP) =  -269.424465681     A.U. after    9 cycles
            NFock=  9  Conv=0.27D-08     -V/T= 2.0050
   1 Symmetry operations used in ECPInt.
 ECPInt:  NShTT=    4095 NPrTT=   12396 LenC2=    4075 LenP2D=   10417.
 LDataN:  DoStor=T MaxTD1= 7 Len=  274
 Calling FoFJK, ICntrl=      2127 FMM=F ISym2X=0 I1Cent= 0 IOpClX= 0 NMat=1 NMatS=1 NMatT=0.
 -------------------------------------------------------------------
 Center     Atomic                   Forces (Hartrees/Bohr)
 Number     Number              X              Y              Z
 -------------------------------------------------------------------
      1        1          -0.000153794    0.001569345   -0.000026646
      2        6           0.000184601   -0.002249555    0.000188763
      3        6          -0.000018834    0.000639410   -0.000163290
      4        6           0.000040419    0.000168741   -0.000222159
      5        1          -0.000014403   -0.000041202   -0.000004191
      6        6          -0.000090061   -0.000046176    0.000116400
      7        8           0.000130934   -0.000307847    0.000354615
      8        1           0.000002829    0.000012175   -0.000074114
      9        1          -0.000040483    0.000057676    0.000007961
     10        1          -0.000000723    0.000025720    0.000002737
     11        6          -0.000009251    0.000152742   -0.000151253
     12        1          -0.000031233    0.000018971   -0.000028823
 -------------------------------------------------------------------
 Cartesian Forces:  Max     0.002249555 RMS     0.000484651
 -----------------------------------------------------------------------------------------------
                       Internal Coordinate Forces (Hartree/Bohr or radian)
  Cent   Atom   N1       Length/X         N2         Alpha/Y        N3         Beta/Z          J
 -----------------------------------------------------------------------------------------------
      1  H 
      2  C        1   0.000027(     1)
      3  C        2  -0.000261(     2)      1   0.000602(    12)
      4  C        2  -0.000082(     3)      1   0.000457(    13)      3  -0.000130(    22)     0
      5  H        3  -0.000012(     4)      2  -0.000019(    14)      1  -0.000910(    23)     0
      6  C        3  -0.000047(     5)      2  -0.000893(    15)      5  -0.000838(    24)     0
      7  O        4   0.000187(     6)      2  -0.000008(    16)      1  -0.001115(    25)     0
      8  H        4   0.000041(     7)      2  -0.000120(    17)      7   0.000047(    26)     0
      9  H        4  -0.000042(     8)      2   0.000116(    18)      7  -0.000026(    27)     0
     10  H        6  -0.000001(     9)      3   0.000010(    19)      2  -0.000304(    28)     0
     11  C        6   0.000003(    10)      3  -0.000572(    20)     10  -0.000348(    29)     0
     12  H       11  -0.000020(    11)      6   0.000077(    21)      3   0.000032(    30)     0
 -----------------------------------------------------------------------------------------------
 Internal  Forces:  Max     0.001115496 RMS     0.000402400

 GradGradGradGradGradGradGradGradGradGradGradGradGradGradGradGradGradGrad
 Berny optimization.
 Search for a local minimum.
 Step number   3 out of a maximum of   40
 All quantities printed in internal units (Hartrees-Bohrs-Radians)
 Update second derivatives using D2CorN and points    1    2    3
 DE= -8.14D-06 DEPred=-7.09D-06 R= 1.15D+00
 TightC=F SS=  1.41D+00  RLast= 1.52D-02 DXNew= 1.8784D-01 4.5498D-02
 Trust test= 1.15D+00 RLast= 1.52D-02 DXMaxT set to 1.12D-01
 ITU=  1  1  0
     Eigenvalues ---    0.01098   0.02851   0.05823   0.07212   0.07786
     Eigenvalues ---    0.10454   0.13699   0.17500   0.20003   0.21835
     Eigenvalues ---    0.23669   0.25153   0.28775   0.33359   0.33633
     Eigenvalues ---    0.34948   0.35676   0.35685   0.35758   0.35990
     Eigenvalues ---    0.37409   0.38022   0.39464   0.51448   0.52912
     Eigenvalues ---    0.56996   0.59596   2.40506   3.27384  40.20218
 RFO step:  Lambda=-5.13719860D-06 EMin= 1.09805339D-02
 Quartic linear search produced a step of  0.32288.
 Variable       Old X    -DE/DX   Delta X   Delta X   Delta X     New X
                                 (Linear)    (Quad)   (Total)
    R2        2.04450   0.00003   0.00001   0.00009   0.00010   2.04460
    R3        2.52331  -0.00026   0.00001  -0.00020  -0.00019   2.52312
    R4        2.83531  -0.00008  -0.00010  -0.00012  -0.00022   2.83509
    R5        2.04547  -0.00001  -0.00003  -0.00004  -0.00006   2.04541
    R6        2.74982  -0.00005   0.00010   0.00015   0.00025   2.75007
    R7        2.73301   0.00019   0.00003   0.00051   0.00054   2.73355
    R8        2.05746   0.00004   0.00002   0.00014   0.00016   2.05761
    R9        2.08578  -0.00004   0.00007  -0.00013  -0.00006   2.08572
   R10        2.04130  -0.00000   0.00000   0.00001   0.00001   2.04132
   R11        2.53278   0.00000  -0.00013  -0.00017  -0.00031   2.53248
   R12        2.04644  -0.00002   0.00000  -0.00005  -0.00005   2.04639
    A3        2.13764   0.00060   0.00018  -0.00021  -0.00004   2.13760
    A4        2.07115   0.00046  -0.00059  -0.00090  -0.00149   2.06966
    A5        2.11510  -0.00002   0.00004  -0.00023  -0.00019   2.11491
    A6        2.08083  -0.00089  -0.00016   0.00027   0.00011   2.08094
    A7        1.96475  -0.00001  -0.00010   0.00126   0.00116   1.96591
    A8        1.95739  -0.00012  -0.00034  -0.00037  -0.00072   1.95667
    A9        1.93635   0.00012   0.00061  -0.00064  -0.00004   1.93631
   A10        2.11900   0.00001   0.00004  -0.00024  -0.00020   2.11880
   A11        2.06488  -0.00057  -0.00007   0.00043   0.00036   2.06524
   A12        2.16855   0.00008  -0.00005  -0.00001  -0.00005   2.16850
    D4       -3.09156  -0.00013  -0.00272   0.00486   0.00214  -3.08942
    D5        0.03027  -0.00091  -0.00222   0.00478   0.00256   0.03283
    D6        3.06120  -0.00084  -0.00091   0.00096   0.00005   3.06125
    D7       -2.64742  -0.00112   0.00203  -0.01072  -0.00869  -2.65611
    D8        2.06952   0.00005  -0.00089   0.00174   0.00085   2.07037
    D9       -2.10371  -0.00003  -0.00081   0.00039  -0.00042  -2.10413
   D10        3.05302  -0.00030   0.00115   0.00324   0.00439   3.05741
   D11        2.99699  -0.00035  -0.00095   0.00004  -0.00091   2.99608
   D12       -2.94728   0.00003   0.00145  -0.00208  -0.00063  -2.94790
         Item               Value     Threshold  Converged?
 Maximum Force            0.001115     0.000450     NO 
 RMS     Force            0.000402     0.000300     NO 
 Maximum Displacement     0.008691     0.001800     NO 
 RMS     Displacement     0.001940     0.001200     NO 
 Predicted change in Energy=-2.188609D-06
 GradGradGradGradGradGradGradGradGradGradGradGradGradGradGradGradGradGrad

 ---------------------------------------------------------------------------------------------------
                            Z-MATRIX (ANGSTROMS AND DEGREES)
   CD    Cent   Atom    N1       Length/X        N2       Alpha/Y        N3        Beta/Z          J
 ---------------------------------------------------------------------------------------------------
      1      1  H 
      2      2  C        1   1.081954(     1)
      3      3  C        2   1.335177(     2)      1  122.476(    12)
      4      4  C        2   1.500265(     3)      1  118.583(    13)      3 -177.011(    22)      0
      5      5  H        3   1.082385(     4)      2  121.175(    14)      1    1.881(    23)      0
      6      6  C        3   1.455276(     5)      2  119.229(    15)      5  175.397(    24)      0
      7      7  O        4   1.446530(     6)      2  112.638(    16)      1 -152.184(    25)      0
      8      8  H        4   1.088842(     7)      2  112.109(    17)      7  118.624(    26)      0
      9      9  H        4   1.103716(     8)      2  110.943(    18)      7 -120.558(    27)      0
     10     10  H        6   1.080218(     9)      3  121.398(    19)      2  175.177(    28)      0
     11     11  C        6   1.340129(    10)      3  118.329(    20)     10  171.663(    29)      0
     12     12  H       11   1.082903(    11)      6  124.246(    21)      3 -168.902(    30)      0
 ---------------------------------------------------------------------------------------------------
                         Z-Matrix orientation:                         
 ---------------------------------------------------------------------
 Center     Atomic      Atomic             Coordinates (Angstroms)
 Number     Number       Type             X           Y           Z
 ---------------------------------------------------------------------
      1          1           0        0.000000    0.000000    0.000000
      2          6           0        0.000000    0.000000    1.081954
      3          6           0        1.126382    0.000000    1.798866
      4          6           0       -1.315627   -0.068700    1.799729
      5          1           0        2.096048    0.030397    1.318886
      6          6           0        1.044738    0.060319    3.250597
      7          8           0       -1.272212    0.557408    3.103015
      8          1           0       -2.105713    0.448470    1.257625
      9          1           0       -1.631448   -1.116218    1.945170
     10          1           0        1.928215   -0.015105    3.867567
     11          6           0       -0.130552    0.381594    3.808648
     12          1           0       -0.262229    0.622197    4.856241
 ---------------------------------------------------------------------
                    Distance matrix (angstroms):
                    1          2          3          4          5
     1  H    0.000000
     2  C    1.081954   0.000000
     3  C    2.122417   1.335177   0.000000
     4  C    2.230386   1.500265   2.442975   0.000000
     5  H    2.476651   2.109615   1.082385   3.446818   0.000000
     6  C    3.414894   2.407931   1.455276   2.773624   2.199467
     7  O    3.399695   2.452328   2.786531   1.446530   3.847860
     8  H    2.493346   2.160095   3.307643   1.088842   4.222953
     9  H    2.773311   2.157013   2.978753   1.103716   3.949833
    10  H    4.321610   3.387902   2.218714   3.847251   2.554606
    11  C    3.829942   2.756359   2.400983   2.375483   3.358571
    12  H    4.902955   3.834205   3.415100   3.305941   4.292386
                    6          7          8          9         10
     6  C    0.000000
     7  O    2.374265   0.000000
     8  H    3.748059   2.027820   0.000000
     9  H    3.201617   2.066561   1.773666   0.000000
    10  H    1.080218   3.339917   4.826932   4.192763   0.000000
    11  C    1.340129   1.353594   3.226988   2.822885   2.097466
    12  H    2.145218   2.024368   4.047054   3.656662   2.486297
                   11         12
    11  C    0.000000
    12  H    1.082903   0.000000
 Symmetry turned off by external request.
 Stoichiometry    C5H6O
 Framework group  C1[X(C5H6O)]
 Deg. of freedom    30
 Full point group                 C1      NOp   1
 Rotational constants (GHZ):           5.5716147           5.3641745           2.8380024
 Standard basis: def2TZVP (5D, 7F)
 The following finite field(s) will be applied:
 An electric field of             -0.0017 -0.0049  0.0054
   222 basis functions,   354 primitive gaussians,   252 cartesian basis functions
    22 alpha electrons       22 beta electrons
       nuclear repulsion energy       223.3573523934 Hartrees.
 NAtoms=   12 NActive=   12 NUniq=   12 SFac= 1.00D+00 NAtFMM=   60 NAOKFM=F Big=F
 Integral buffers will be    131072 words long.
 Raffenetti 2 integral format.
 Two-electron integral symmetry is turned off.
 One-electron integrals computed using PRISM.
   1 Symmetry operations used in ECPInt.
 ECPInt:  NShTT=    4095 NPrTT=   12396 LenC2=    4075 LenP2D=   10417.
 LDataN:  DoStor=T MaxTD1= 6 Len=  172
 NBasis=   222 RedAO= T EigKep=  9.41D-05  NBF=   222
 NBsUse=   222 1.00D-06 EigRej= -1.00D+00 NBFU=   222
 The nuclear repulsion energy is now       224.4293544096 hartrees.
 Initial guess from the checkpoint file:  "checkpoint.chk"
 B after Tr=    -0.000247    0.010064   -0.000351
         Rot=    0.999997   -0.002011    0.000060   -0.001196 Ang=  -0.27 deg.
 Keep R1 ints in memory in canonical form, NReq=319363885.
 Requested convergence on RMS density matrix=1.00D-08 within 128 cycles.
 Requested convergence on MAX density matrix=1.00D-06.
 Requested convergence on             energy=1.00D-06.
 No special actions if energy rises.
 SCF Done:  E(RB3LYP) =  -269.424469640     A.U. after    9 cycles
            NFock=  9  Conv=0.22D-08     -V/T= 2.0050
   1 Symmetry operations used in ECPInt.
 ECPInt:  NShTT=    4095 NPrTT=   12396 LenC2=    4075 LenP2D=   10417.
 LDataN:  DoStor=T MaxTD1= 7 Len=  274
 Calling FoFJK, ICntrl=      2127 FMM=F ISym2X=0 I1Cent= 0 IOpClX= 0 NMat=1 NMatS=1 NMatT=0.
 -------------------------------------------------------------------
 Center     Atomic                   Forces (Hartrees/Bohr)
 Number     Number              X              Y              Z
 -------------------------------------------------------------------
      1        1          -0.000120816    0.001646751   -0.000009908
      2        6           0.000180970   -0.002336048    0.000133592
      3        6          -0.000053833    0.000698696   -0.000092492
      4        6           0.000003601    0.000049865   -0.000123384
      5        1           0.000000385   -0.000077380   -0.000005972
      6        6           0.000012076    0.000034363    0.000069040
      7        8           0.000143165   -0.000218423    0.000228933
      8        1          -0.000006990    0.000028919   -0.000017891
      9        1          -0.000034643    0.000049608   -0.000004064
     10        1          -0.000011785   -0.000039420    0.000000073
     11        6          -0.000084376    0.000186341   -0.000175375
     12        1          -0.000027755   -0.000023272   -0.000002552
 -------------------------------------------------------------------
 Cartesian Forces:  Max     0.002336048 RMS     0.000499021
 -----------------------------------------------------------------------------------------------
                       Internal Coordinate Forces (Hartree/Bohr or radian)
  Cent   Atom   N1       Length/X         N2         Alpha/Y        N3         Beta/Z          J
 -----------------------------------------------------------------------------------------------
      1  H 
      2  C        1   0.000010(     1)
      3  C        2  -0.000251(     2)      1   0.000679(    12)
      4  C        2  -0.000048(     3)      1   0.000604(    13)      3  -0.000084(    22)     0
      5  H        3   0.000001(     4)      2  -0.000008(    14)      1  -0.000862(    23)     0
      6  C        3  -0.000096(     5)      2  -0.000907(    15)      5  -0.000726(    24)     0
      7  O        4   0.000116(     6)      2  -0.000150(    16)      1  -0.000883(    25)     0
      8  H        4   0.000028(     7)      2  -0.000032(    17)      7  -0.000027(    26)     0
      9  H        4  -0.000038(     8)      2   0.000089(    18)      7  -0.000042(    27)     0
     10  H        6  -0.000007(     9)      3   0.000006(    19)      2  -0.000356(    28)     0
     11  C        6   0.000063(    10)      3  -0.000603(    20)     10  -0.000285(    29)     0
     12  H       11  -0.000004(    11)      6   0.000050(    21)      3  -0.000045(    30)     0
 -----------------------------------------------------------------------------------------------
 Internal  Forces:  Max     0.000907426 RMS     0.000383347

 GradGradGradGradGradGradGradGradGradGradGradGradGradGradGradGradGradGrad
 Berny optimization.
 Search for a local minimum.
 Step number   4 out of a maximum of   40
 All quantities printed in internal units (Hartrees-Bohrs-Radians)
 Update second derivatives using D2CorN and points    1    2    3    4
 DE= -3.96D-06 DEPred=-2.19D-06 R= 1.81D+00
 TightC=F SS=  1.41D+00  RLast= 1.06D-02 DXNew= 1.8784D-01 3.1884D-02
 Trust test= 1.81D+00 RLast= 1.06D-02 DXMaxT set to 1.12D-01
 ITU=  1  1  1  0
     Eigenvalues ---    0.01001   0.02912   0.05561   0.06790   0.07547
     Eigenvalues ---    0.10472   0.11971   0.16868   0.19610   0.21508
     Eigenvalues ---    0.23674   0.25158   0.28621   0.33374   0.33620
     Eigenvalues ---    0.34947   0.35677   0.35685   0.35757   0.35990
     Eigenvalues ---    0.37409   0.37982   0.39454   0.51359   0.52892
     Eigenvalues ---    0.56996   0.59578   2.40074   3.26260  40.20276
 RFO step:  Lambda=-1.68499486D-06 EMin= 1.00145155D-02
 Quartic linear search produced a step of  1.03888.
 Variable       Old X    -DE/DX   Delta X   Delta X   Delta X     New X
                                 (Linear)    (Quad)   (Total)
    R2        2.04460   0.00001   0.00010  -0.00002   0.00008   2.04467
    R3        2.52312  -0.00025  -0.00020  -0.00010  -0.00029   2.52283
    R4        2.83509  -0.00005  -0.00023   0.00016  -0.00006   2.83503
    R5        2.04541   0.00000  -0.00006   0.00004  -0.00003   2.04538
    R6        2.75007  -0.00010   0.00026  -0.00012   0.00014   2.75021
    R7        2.73355   0.00012   0.00056  -0.00000   0.00056   2.73410
    R8        2.05761   0.00003   0.00016   0.00005   0.00021   2.05782
    R9        2.08572  -0.00004  -0.00006  -0.00012  -0.00018   2.08554
   R10        2.04132  -0.00001   0.00001  -0.00003  -0.00002   2.04130
   R11        2.53248   0.00006  -0.00032   0.00006  -0.00026   2.53222
   R12        2.04639  -0.00000  -0.00005   0.00003  -0.00002   2.04637
    A3        2.13760   0.00068  -0.00004  -0.00029  -0.00033   2.13727
    A4        2.06966   0.00060  -0.00155   0.00022  -0.00133   2.06834
    A5        2.11491  -0.00001  -0.00020  -0.00002  -0.00021   2.11470
    A6        2.08094  -0.00091   0.00012   0.00011   0.00023   2.08117
    A7        1.96591  -0.00015   0.00121  -0.00012   0.00109   1.96700
    A8        1.95667  -0.00003  -0.00074  -0.00006  -0.00080   1.95587
    A9        1.93631   0.00009  -0.00004   0.00060   0.00056   1.93688
   A10        2.11880   0.00001  -0.00021   0.00011  -0.00010   2.11870
   A11        2.06524  -0.00060   0.00037  -0.00026   0.00012   2.06535
   A12        2.16850   0.00005  -0.00006  -0.00003  -0.00009   2.16841
    D4       -3.08942  -0.00008   0.00222  -0.00394  -0.00172  -3.09114
    D5        0.03283  -0.00086   0.00266  -0.00398  -0.00131   0.03152
    D6        3.06125  -0.00073   0.00005   0.00085   0.00091   3.06216
    D7       -2.65611  -0.00088  -0.00903   0.00268  -0.00635  -2.66246
    D8        2.07037  -0.00003   0.00088  -0.00096  -0.00008   2.07029
    D9       -2.10413  -0.00004  -0.00044  -0.00064  -0.00108  -2.10522
   D10        3.05741  -0.00036   0.00456  -0.00065   0.00391   3.06132
   D11        2.99608  -0.00029  -0.00095  -0.00004  -0.00099   2.99509
   D12       -2.94790  -0.00005  -0.00065  -0.00039  -0.00104  -2.94894
         Item               Value     Threshold  Converged?
 Maximum Force            0.000907     0.000450     NO 
 RMS     Force            0.000383     0.000300     NO 
 Maximum Displacement     0.006350     0.001800     NO 
 RMS     Displacement     0.001517     0.001200     NO 
 Predicted change in Energy=-1.673868D-06
 GradGradGradGradGradGradGradGradGradGradGradGradGradGradGradGradGradGrad

 ---------------------------------------------------------------------------------------------------
                            Z-MATRIX (ANGSTROMS AND DEGREES)
   CD    Cent   Atom    N1       Length/X        N2       Alpha/Y        N3        Beta/Z          J
 ---------------------------------------------------------------------------------------------------
      1      1  H 
      2      2  C        1   1.081995(     1)
      3      3  C        2   1.335023(     2)      1  122.457(    12)
      4      4  C        2   1.500231(     3)      1  118.507(    13)      3 -177.109(    22)      0
      5      5  H        3   1.082371(     4)      2  121.163(    14)      1    1.806(    23)      0
      6      6  C        3   1.455350(     5)      2  119.243(    15)      5  175.449(    24)      0
      7      7  O        4   1.446825(     6)      2  112.701(    16)      1 -152.548(    25)      0
      8      8  H        4   1.088952(     7)      2  112.063(    17)      7  118.619(    26)      0
      9      9  H        4   1.103622(     8)      2  110.975(    18)      7 -120.620(    27)      0
     10     10  H        6   1.080208(     9)      3  121.392(    19)      2  175.401(    28)      0
     11     11  C        6   1.339993(    10)      3  118.336(    20)     10  171.606(    29)      0
     12     12  H       11   1.082891(    11)      6  124.241(    21)      3 -168.962(    30)      0
 ---------------------------------------------------------------------------------------------------
                         Z-Matrix orientation:                         
 ---------------------------------------------------------------------
 Center     Atomic      Atomic             Coordinates (Angstroms)
 Number     Number       Type             X           Y           Z
 ---------------------------------------------------------------------
      1          1           0        0.000000    0.000000    0.000000
      2          6           0        0.000000    0.000000    1.081995
      3          6           0        1.126491    0.000000    1.798448
      4          6           0       -1.316662   -0.066483    1.798008
      5          1           0        2.095902    0.029185    1.317909
      6          6           0        1.045678    0.060831    3.250279
      7          8           0       -1.273148    0.551826    3.105334
      8          1           0       -2.103201    0.457822    1.257382
      9          1           0       -1.638630   -1.112969    1.936511
     10          1           0        1.929928   -0.011015    3.866549
     11          6           0       -0.129904    0.379185    3.809063
     12          1           0       -0.261446    0.619015    4.856837
 ---------------------------------------------------------------------
                    Distance matrix (angstroms):
                    1          2          3          4          5
     1  H    0.000000
     2  C    1.081995   0.000000
     3  C    2.122121   1.335023   0.000000
     4  C    2.229540   1.500231   2.444057   0.000000
     5  H    2.475993   2.109339   1.082371   3.447497   0.000000
     6  C    3.414887   2.408028   1.455350   2.775960   2.199551
     7  O    3.401253   2.453430   2.787603   1.446825   3.849485
     8  H    2.492803   2.159587   3.306549   1.088952   4.221358
     9  H    2.770178   2.157315   2.983899   1.103622   3.953974
    10  H    4.321452   3.387991   2.218711   3.849973   2.554355
    11  C    3.830093   2.756366   2.401017   2.377258   3.358952
    12  H    4.903101   3.834183   3.415156   3.307541   4.292901
                    6          7          8          9         10
     6  C    0.000000
     7  O    2.374666   0.000000
     8  H    3.747624   2.027993   0.000000
     9  H    3.210810   2.066704   1.773254   0.000000
    10  H    1.080208   3.340050   4.826355   4.204041   0.000000
    11  C    1.339993   1.353531   3.226633   2.830058   2.097253
    12  H    2.145034   2.023812   4.046495   3.663974   2.485906
                   11         12
    11  C    0.000000
    12  H    1.082891   0.000000
 Symmetry turned off by external request.
 Stoichiometry    C5H6O
 Framework group  C1[X(C5H6O)]
 Deg. of freedom    30
 Full point group                 C1      NOp   1
 Rotational constants (GHZ):           5.5689287           5.3637177           2.8353942
 Standard basis: def2TZVP (5D, 7F)
 The following finite field(s) will be applied:
 An electric field of             -0.0017 -0.0049  0.0054
   222 basis functions,   354 primitive gaussians,   252 cartesian basis functions
    22 alpha electrons       22 beta electrons
       nuclear repulsion energy       223.3234714307 Hartrees.
 NAtoms=   12 NActive=   12 NUniq=   12 SFac= 1.00D+00 NAtFMM=   60 NAOKFM=F Big=F
 Integral buffers will be    131072 words long.
 Raffenetti 2 integral format.
 Two-electron integral symmetry is turned off.
 One-electron integrals computed using PRISM.
   1 Symmetry operations used in ECPInt.
 ECPInt:  NShTT=    4095 NPrTT=   12396 LenC2=    4075 LenP2D=   10415.
 LDataN:  DoStor=T MaxTD1= 6 Len=  172
 NBasis=   222 RedAO= T EigKep=  9.39D-05  NBF=   222
 NBsUse=   222 1.00D-06 EigRej= -1.00D+00 NBFU=   222
 The nuclear repulsion energy is now       224.3957340600 hartrees.
 Initial guess from the checkpoint file:  "checkpoint.chk"
 B after Tr=    -0.000875    0.006303   -0.000656
         Rot=    1.000000   -0.000809   -0.000076   -0.000143 Ang=  -0.09 deg.
 Keep R1 ints in memory in canonical form, NReq=319363885.
 Requested convergence on RMS density matrix=1.00D-08 within 128 cycles.
 Requested convergence on MAX density matrix=1.00D-06.
 Requested convergence on             energy=1.00D-06.
 No special actions if energy rises.
 SCF Done:  E(RB3LYP) =  -269.424472167     A.U. after    9 cycles
            NFock=  9  Conv=0.31D-08     -V/T= 2.0050
   1 Symmetry operations used in ECPInt.
 ECPInt:  NShTT=    4095 NPrTT=   12396 LenC2=    4075 LenP2D=   10415.
 LDataN:  DoStor=T MaxTD1= 7 Len=  274
 Calling FoFJK, ICntrl=      2127 FMM=F ISym2X=0 I1Cent= 0 IOpClX= 0 NMat=1 NMatS=1 NMatT=0.
 -------------------------------------------------------------------
 Center     Atomic                   Forces (Hartrees/Bohr)
 Number     Number              X              Y              Z
 -------------------------------------------------------------------
      1        1          -0.000106893    0.001603733   -0.000002605
      2        6           0.000116315   -0.002241256    0.000037196
      3        6          -0.000033355    0.000626026   -0.000013463
      4        6          -0.000042716    0.000066539   -0.000054955
      5        1           0.000000806   -0.000055113   -0.000009533
      6        6           0.000055450    0.000121583    0.000034034
      7        8           0.000196578   -0.000133487    0.000146207
      8        1          -0.000005750   -0.000002295   -0.000013668
      9        1           0.000008285    0.000019061    0.000000996
     10        1          -0.000018316   -0.000086555    0.000005217
     11        6          -0.000152827    0.000123334   -0.000139398
     12        1          -0.000017579   -0.000041570    0.000009972
 -------------------------------------------------------------------
 Cartesian Forces:  Max     0.002241256 RMS     0.000477046
 -----------------------------------------------------------------------------------------------
                       Internal Coordinate Forces (Hartree/Bohr or radian)
  Cent   Atom   N1       Length/X         N2         Alpha/Y        N3         Beta/Z          J
 -----------------------------------------------------------------------------------------------
      1  H 
      2  C        1   0.000003(     1)
      3  C        2  -0.000201(     2)      1   0.000876(    12)
      4  C        2  -0.000098(     3)      1   0.000841(    13)      3  -0.000082(    22)     0
      5  H        3   0.000003(     4)      2  -0.000015(    14)      1  -0.000470(    23)     0
      6  C        3  -0.000078(     5)      2  -0.000908(    15)      5  -0.000373(    24)     0
      7  O        4   0.000081(     6)      2  -0.000380(    16)      1  -0.000548(    25)     0
      8  H        4   0.000010(     7)      2  -0.000011(    17)      7   0.000019(    26)     0
      9  H        4  -0.000020(     8)      2  -0.000001(    18)      7   0.000008(    27)     0
     10  H        6  -0.000006(     9)      3   0.000014(    19)      2  -0.000231(    28)     0
     11  C        6   0.000115(    10)      3  -0.000501(    20)     10  -0.000077(    29)     0
     12  H       11   0.000003(    11)      6   0.000020(    21)      3  -0.000076(    30)     0
 -----------------------------------------------------------------------------------------------
 Internal  Forces:  Max     0.000907614 RMS     0.000341738

 GradGradGradGradGradGradGradGradGradGradGradGradGradGradGradGradGradGrad
 Berny optimization.
 Search for a local minimum.
 Step number   5 out of a maximum of   40
 All quantities printed in internal units (Hartrees-Bohrs-Radians)
 Update second derivatives using D2CorN and points    1    2    3    4    5

 DE= -2.53D-06 DEPred=-1.67D-06 R= 1.51D+00
 TightC=F SS=  1.41D+00  RLast= 8.31D-03 DXNew= 1.8784D-01 2.4927D-02
 Trust test= 1.51D+00 RLast= 8.31D-03 DXMaxT set to 1.12D-01
 ITU=  1  1  1  1  0
     Eigenvalues ---    0.01020   0.03748   0.05311   0.06415   0.07676
     Eigenvalues ---    0.10490   0.11405   0.16757   0.19490   0.21468
     Eigenvalues ---    0.23678   0.25162   0.28577   0.33377   0.33618
     Eigenvalues ---    0.34946   0.35677   0.35685   0.35757   0.35990
     Eigenvalues ---    0.37409   0.37972   0.39450   0.51310   0.52892
     Eigenvalues ---    0.56997   0.59576   2.39882   3.25607  40.20260
 RFO step:  Lambda=-6.52098413D-07 EMin= 1.01961899D-02
 Quartic linear search produced a step of  0.41946.
 Variable       Old X    -DE/DX   Delta X   Delta X   Delta X     New X
                                 (Linear)    (Quad)   (Total)
    R2        2.04467   0.00000   0.00003  -0.00001   0.00002   2.04470
    R3        2.52283  -0.00020  -0.00012   0.00007  -0.00006   2.52277
    R4        2.83503  -0.00010  -0.00003  -0.00002  -0.00005   2.83498
    R5        2.04538   0.00000  -0.00001   0.00001  -0.00000   2.04538
    R6        2.75021  -0.00008   0.00006   0.00002   0.00008   2.75029
    R7        2.73410   0.00008   0.00023   0.00001   0.00024   2.73435
    R8        2.05782   0.00001   0.00009  -0.00000   0.00008   2.05791
    R9        2.08554  -0.00002  -0.00007   0.00000  -0.00007   2.08547
   R10        2.04130  -0.00001  -0.00001  -0.00002  -0.00003   2.04127
   R11        2.53222   0.00011  -0.00011  -0.00002  -0.00013   2.53209
   R12        2.04637   0.00000  -0.00001   0.00003   0.00002   2.04639
    A3        2.13727   0.00088  -0.00014   0.00015   0.00001   2.13728
    A4        2.06834   0.00084  -0.00056  -0.00031  -0.00087   2.06747
    A5        2.11470  -0.00001  -0.00009  -0.00009  -0.00018   2.11452
    A6        2.08117  -0.00091   0.00010   0.00012   0.00022   2.08139
    A7        1.96700  -0.00038   0.00046   0.00006   0.00051   1.96751
    A8        1.95587  -0.00001  -0.00034   0.00010  -0.00023   1.95564
    A9        1.93688  -0.00000   0.00024  -0.00036  -0.00013   1.93675
   A10        2.11870   0.00001  -0.00004   0.00014   0.00010   2.11880
   A11        2.06535  -0.00050   0.00005  -0.00003   0.00002   2.06538
   A12        2.16841   0.00002  -0.00004   0.00000  -0.00003   2.16837
    D4       -3.09114  -0.00008  -0.00072   0.00155   0.00083  -3.09031
    D5        0.03152  -0.00047  -0.00055   0.00069   0.00014   0.03165
    D6        3.06216  -0.00037   0.00038   0.00143   0.00181   3.06397
    D7       -2.66246  -0.00055  -0.00266  -0.00267  -0.00533  -2.66779
    D8        2.07029   0.00002  -0.00003   0.00039   0.00036   2.07065
    D9       -2.10522   0.00001  -0.00045   0.00019  -0.00027  -2.10548
   D10        3.06132  -0.00023   0.00164  -0.00142   0.00022   3.06154
   D11        2.99509  -0.00008  -0.00041   0.00188   0.00147   2.99656
   D12       -2.94894  -0.00008  -0.00044  -0.00217  -0.00260  -2.95155
         Item               Value     Threshold  Converged?
 Maximum Force            0.000908     0.000450     NO 
 RMS     Force            0.000342     0.000300     NO 
 Maximum Displacement     0.005333     0.001800     NO 
 RMS     Displacement     0.001196     0.001200     YES
 Predicted change in Energy=-4.794934D-07
 GradGradGradGradGradGradGradGradGradGradGradGradGradGradGradGradGradGrad

 ---------------------------------------------------------------------------------------------------
                            Z-MATRIX (ANGSTROMS AND DEGREES)
   CD    Cent   Atom    N1       Length/X        N2       Alpha/Y        N3        Beta/Z          J
 ---------------------------------------------------------------------------------------------------
      1      1  H 
      2      2  C        1   1.082009(     1)
      3      3  C        2   1.334993(     2)      1  122.457(    12)
      4      4  C        2   1.500204(     3)      1  118.457(    13)      3 -177.062(    22)      0
      5      5  H        3   1.082371(     4)      2  121.153(    14)      1    1.814(    23)      0
      6      6  C        3   1.455393(     5)      2  119.255(    15)      5  175.552(    24)      0
      7      7  O        4   1.446954(     6)      2  112.730(    16)      1 -152.853(    25)      0
      8      8  H        4   1.088997(     7)      2  112.050(    17)      7  118.640(    26)      0
      9      9  H        4   1.103583(     8)      2  110.968(    18)      7 -120.635(    27)      0
     10     10  H        6   1.080195(     9)      3  121.398(    19)      2  175.413(    28)      0
     11     11  C        6   1.339927(    10)      3  118.337(    20)     10  171.690(    29)      0
     12     12  H       11   1.082901(    11)      6  124.239(    21)      3 -169.111(    30)      0
 ---------------------------------------------------------------------------------------------------
                         Z-Matrix orientation:                         
 ---------------------------------------------------------------------
 Center     Atomic      Atomic             Coordinates (Angstroms)
 Number     Number       Type             X           Y           Z
 ---------------------------------------------------------------------
      1          1           0        0.000000    0.000000    0.000000
      2          6           0        0.000000    0.000000    1.082009
      3          6           0        1.126458    0.000000    1.798456
      4          6           0       -1.317203   -0.067608    1.796864
      5          1           0        2.095786    0.029316    1.317759
      6          6           0        1.045881    0.058353    3.250445
      7          8           0       -1.274172    0.544329    3.107344
      8          1           0       -2.102451    0.460372    1.257849
      9          1           0       -1.641052   -1.114181    1.929909
     10          1           0        1.930281   -0.013378    3.866490
     11          6           0       -0.130338    0.372614    3.810046
     12          1           0       -0.262568    0.608194    4.858708
 ---------------------------------------------------------------------
                    Distance matrix (angstroms):
                    1          2          3          4          5
     1  H    0.000000
     2  C    1.082009   0.000000
     3  C    2.122111   1.334993   0.000000
     4  C    2.228972   1.500204   2.444597   0.000000
     5  H    2.475817   2.109208   1.082371   3.447815   0.000000
     6  C    3.415065   2.408192   1.455393   2.777216   2.199641
     7  O    3.402263   2.453934   2.787921   1.446954   3.850255
     8  H    2.492875   2.159436   3.306063   1.088997   4.220734
     9  H    2.767490   2.157171   2.986267   1.103583   3.955537
    10  H    4.321563   3.388141   2.218800   3.851292   2.554455
    11  C    3.830441   2.756450   2.401014   2.378097   3.359311
    12  H    4.903660   3.834357   3.415323   3.308149   4.293629
                    6          7          8          9         10
     6  C    0.000000
     7  O    2.374720   0.000000
     8  H    3.747540   2.028233   0.000000
     9  H    3.215317   2.066787   1.773068   0.000000
    10  H    1.080195   3.340039   4.826218   4.209101   0.000000
    11  C    1.339927   1.353378   3.226553   2.833325   2.097219
    12  H    2.144964   2.023535   4.046382   3.666695   2.485848
                   11         12
    11  C    0.000000
    12  H    1.082901   0.000000
 Symmetry turned off by external request.
 Stoichiometry    C5H6O
 Framework group  C1[X(C5H6O)]
 Deg. of freedom    30
 Full point group                 C1      NOp   1
 Rotational constants (GHZ):           5.5674657           5.3638680           2.8341047
 Standard basis: def2TZVP (5D, 7F)
 The following finite field(s) will be applied:
 An electric field of             -0.0017 -0.0049  0.0054
   222 basis functions,   354 primitive gaussians,   252 cartesian basis functions
    22 alpha electrons       22 beta electrons
       nuclear repulsion energy       223.3087139606 Hartrees.
 NAtoms=   12 NActive=   12 NUniq=   12 SFac= 1.00D+00 NAtFMM=   60 NAOKFM=F Big=F
 Integral buffers will be    131072 words long.
 Raffenetti 2 integral format.
 Two-electron integral symmetry is turned off.
 One-electron integrals computed using PRISM.
   1 Symmetry operations used in ECPInt.
 ECPInt:  NShTT=    4095 NPrTT=   12396 LenC2=    4075 LenP2D=   10415.
 LDataN:  DoStor=T MaxTD1= 6 Len=  172
 NBasis=   222 RedAO= T EigKep=  9.37D-05  NBF=   222
 NBsUse=   222 1.00D-06 EigRej= -1.00D+00 NBFU=   222
 The nuclear repulsion energy is now       224.3823694594 hartrees.
 Initial guess from the checkpoint file:  "checkpoint.chk"
 B after Tr=    -0.000039    0.007133   -0.000228
         Rot=    0.999999   -0.001350    0.000038   -0.000494 Ang=  -0.16 deg.
 Keep R1 ints in memory in canonical form, NReq=319363885.
 Requested convergence on RMS density matrix=1.00D-08 within 128 cycles.
 Requested convergence on MAX density matrix=1.00D-06.
 Requested convergence on             energy=1.00D-06.
 No special actions if energy rises.
 SCF Done:  E(RB3LYP) =  -269.424472816     A.U. after    8 cycles
            NFock=  8  Conv=0.71D-08     -V/T= 2.0050
   1 Symmetry operations used in ECPInt.
 ECPInt:  NShTT=    4095 NPrTT=   12396 LenC2=    4075 LenP2D=   10415.
 LDataN:  DoStor=T MaxTD1= 7 Len=  274
 Calling FoFJK, ICntrl=      2127 FMM=F ISym2X=0 I1Cent= 0 IOpClX= 0 NMat=1 NMatS=1 NMatT=0.
 -------------------------------------------------------------------
 Center     Atomic                   Forces (Hartrees/Bohr)
 Number     Number              X              Y              Z
 -------------------------------------------------------------------
      1        1          -0.000081242    0.001630808   -0.000004573
      2        6           0.000117273   -0.002230551    0.000042664
      3        6          -0.000023318    0.000562317   -0.000027359
      4        6          -0.000016482    0.000034917   -0.000002441
      5        1          -0.000003526   -0.000025309   -0.000008626
      6        6           0.000026121    0.000137747    0.000012536
      7        8           0.000081063   -0.000053066    0.000045597
      8        1          -0.000004364    0.000002846    0.000002189
      9        1          -0.000000016    0.000005407    0.000003868
     10        1          -0.000011172   -0.000079308   -0.000000874
     11        6          -0.000079657    0.000024913   -0.000066361
     12        1          -0.000004679   -0.000010721    0.000003380
 -------------------------------------------------------------------
 Cartesian Forces:  Max     0.002230551 RMS     0.000472173
 -----------------------------------------------------------------------------------------------
                       Internal Coordinate Forces (Hartree/Bohr or radian)
  Cent   Atom   N1       Length/X         N2         Alpha/Y        N3         Beta/Z          J
 -----------------------------------------------------------------------------------------------
      1  H 
      2  C        1   0.000005(     1)
      3  C        2  -0.000128(     2)      1   0.000373(    12)
      4  C        2  -0.000029(     3)      1   0.000401(    13)      3  -0.000069(    22)     0
      5  H        3  -0.000000(     4)      2  -0.000018(    14)      1  -0.000226(    23)     0
[...]
     Eigenvalues ---    0.19374   0.22845   0.23777   0.24880   0.29746
     Eigenvalues ---    0.30928   0.32361   0.34570   0.35047   0.35633
     Eigenvalues ---    0.35691   0.36314   0.36422   0.42213   0.51407
     Eigenvalues ---    0.56516   0.61601   2.22470   2.87282  28.88710
 Angle between quadratic step and forces=  81.21 degrees.
 Linear search not attempted -- first point.
 Variable       Old X    -DE/DX   Delta X   Delta X   Delta X     New X
                                 (Linear)    (Quad)   (Total)
    R2        2.04470   0.00000   0.00000   0.00003   0.00003   2.04473
    R3        2.52277  -0.00013   0.00000  -0.00010  -0.00010   2.52268
    R4        2.83498  -0.00003   0.00000   0.00004   0.00004   2.83501
    R5        2.04538  -0.00000   0.00000  -0.00000  -0.00000   2.04538
    R6        2.75029  -0.00004   0.00000   0.00002   0.00002   2.75032
    R7        2.73435   0.00002   0.00000  -0.00002  -0.00002   2.73433
    R8        2.05791   0.00000   0.00000   0.00003   0.00003   2.05793
    R9        2.08547  -0.00000   0.00000  -0.00002  -0.00002   2.08545
   R10        2.04127  -0.00000   0.00000  -0.00003  -0.00003   2.04124
   R11        2.53209   0.00005   0.00000  -0.00005  -0.00005   2.53205
   R12        2.04639   0.00000   0.00000   0.00002   0.00002   2.04640
    A3        2.13728   0.00037   0.00000  -0.00029  -0.00029   2.13699
    A4        2.06747   0.00040   0.00000  -0.00001  -0.00001   2.06746
    A5        2.11452  -0.00002   0.00000  -0.00015  -0.00015   2.11437
    A6        2.08139  -0.00045   0.00000   0.00006   0.00006   2.08145
    A7        1.96751  -0.00016   0.00000   0.00017   0.00017   1.96768
    A8        1.95564   0.00001   0.00000  -0.00009  -0.00009   1.95555
    A9        1.93675   0.00001   0.00000   0.00004   0.00004   1.93679
   A10        2.11880  -0.00000   0.00000   0.00011   0.00011   2.11891
   A11        2.06538  -0.00024   0.00000  -0.00001  -0.00001   2.06537
   A12        2.16837   0.00001   0.00000  -0.00004  -0.00004   2.16833
    D4       -3.09031  -0.00007   0.00000  -0.00224  -0.00224  -3.09255
    D5        0.03165  -0.00023   0.00000  -0.00194  -0.00194   0.02971
    D6        3.06397  -0.00018   0.00000   0.00092   0.00092   3.06489
    D7       -2.66779  -0.00022   0.00000  -0.00016  -0.00016  -2.66795
    D8        2.07065  -0.00000   0.00000   0.00006   0.00006   2.07071
    D9       -2.10548   0.00001   0.00000  -0.00010  -0.00010  -2.10559
   D10        3.06154  -0.00012   0.00000  -0.00271  -0.00271   3.05883
   D11        2.99656   0.00002   0.00000   0.00311   0.00311   2.99967
   D12       -2.95155  -0.00002   0.00000  -0.00156  -0.00156  -2.95310
         Item               Value     Threshold  Converged?
 Maximum Force            0.000446     0.000450     YES
 RMS     Force            0.000159     0.000300     YES
 Maximum Displacement     0.003106     0.001800     NO 
 RMS     Displacement     0.000987     0.001200     YES
 Predicted change in Energy=-3.597508D-07
                       ----------------------------
                       ! Non-Optimized Parameters !
                       ! (Angstroms and Degrees)  !
 ----------------------                            ----------------------
 !      Name          Value   Derivative information (Atomic Units)     !
 ------------------------------------------------------------------------
 !       R2          1.082    -DE/DX =    0.0                           !
 !       R3          1.3349   -DE/DX =   -0.0001                        !
 !       R4          1.5002   -DE/DX =    0.0                           !
 !       R5          1.0824   -DE/DX =    0.0                           !
 !       R6          1.4554   -DE/DX =    0.0                           !
 !       R7          1.4469   -DE/DX =    0.0                           !
 !       R8          1.089    -DE/DX =    0.0                           !
 !       R9          1.1036   -DE/DX =    0.0                           !
 !       R10         1.0802   -DE/DX =    0.0                           !
 !       R11         1.3399   -DE/DX =    0.0001                        !
 !       R12         1.0829   -DE/DX =    0.0                           !
 !       A3        122.4407   -DE/DX =    0.0004                        !
 !       A4        118.4569   -DE/DX =    0.0004                        !
 !       A5        121.1446   -DE/DX =    0.0                           !
 !       A6        119.2586   -DE/DX =   -0.0004                        !
 !       A7        112.7397   -DE/DX =   -0.0002                        !
 !       A8        112.0446   -DE/DX =    0.0                           !
 !       A9        110.9696   -DE/DX =    0.0                           !
 !       A10       121.4047   -DE/DX =    0.0                           !
 !       A11       118.3368   -DE/DX =   -0.0002                        !
 !       A12       124.2362   -DE/DX =    0.0                           !
 !       D4       -177.19     -DE/DX =   -0.0001                        !
 !       D5          1.7025   -DE/DX =   -0.0002                        !
 !       D6        175.605    -DE/DX =   -0.0002                        !
 !       D7       -152.8624   -DE/DX =   -0.0002                        !
 !       D8        118.643    -DE/DX =    0.0                           !
 !       D9       -120.6412   -DE/DX =    0.0                           !
 !       D10       175.258    -DE/DX =   -0.0001                        !
 !       D11       171.8682   -DE/DX =    0.0                           !
 !       D12      -169.2003   -DE/DX =    0.0                           !
 ------------------------------------------------------------------------
 GradGradGradGradGradGradGradGradGradGradGradGradGradGradGradGradGradGrad


 ----------------------------------------------------------------------

 Electric dipole moment (input orientation):
 (Debye = 10**-18 statcoulomb cm , SI units = C m)
                  (au)            (Debye)         (10**-30 SI)
   Tot        0.611885D+00      0.155526D+01      0.518778D+01
   x          0.228099D+00      0.579769D+00      0.193390D+01
   y          0.407056D-01      0.103463D+00      0.345117D+00
   z         -0.566320D+00     -0.143944D+01     -0.480146D+01

 Dipole polarizability, Alpha (input orientation).
 (esu units = cm**3 , SI units = C**2 m**2 J**-1)
 Alpha(0;0):
               (au)            (10**-24 esu)      (10**-40 SI)
   iso        0.595830D+02      0.882929D+01      0.982391D+01
   aniso      0.281300D+02      0.416843D+01      0.463800D+01
   xx         0.680284D+02      0.100808D+02      0.112164D+02
   yx        -0.619435D+00     -0.917909D-01     -0.102131D+00
   yy         0.415449D+02      0.615632D+01      0.684983D+01
   zx         0.276716D+01      0.410050D+00      0.456242D+00
   zy         0.337107D+01      0.499540D+00      0.555814D+00
   zz         0.691757D+02      0.102508D+02      0.114055D+02

 ----------------------------------------------------------------------

 Dipole orientation:
     1          0.00000000          0.00000000          0.00000000
     6          0.76222300         -0.13602349         -1.89243525
     6          3.24199622         -0.19867517         -2.35196830
     6         -1.04206238         -0.13048242         -4.07912405
     1          4.60222156         -0.16992597         -0.82469758
     6          4.12215241         -0.49318901         -4.94092740
     8         -0.05833636         -1.44791507         -6.26391412
     1         -2.81143360         -1.07727572         -3.62318035
     1         -1.49068624          1.81810131         -4.67152573
     1          6.10853160         -0.41386938         -5.40438981
     6          2.44639777         -1.18466874         -6.70875175
     1          2.94755075         -1.76387550         -8.60639803

 Electric dipole moment (dipole orientation):
 (Debye = 10**-18 statcoulomb cm , SI units = C m)
                  (au)            (Debye)         (10**-30 SI)
   Tot        0.611885D+00      0.155526D+01      0.518778D+01
   x          0.000000D+00      0.000000D+00      0.000000D+00
   y          0.000000D+00      0.000000D+00      0.000000D+00
   z          0.611885D+00      0.155526D+01      0.518778D+01

 Dipole polarizability, Alpha (dipole orientation).
 (esu units = cm**3 , SI units = C**2 m**2 J**-1)
 Alpha(0;0):
               (au)            (10**-24 esu)      (10**-40 SI)
   iso        0.595830D+02      0.882929D+01      0.982391D+01
   aniso      0.281300D+02      0.416843D+01      0.463800D+01
   xx         0.700801D+02      0.103848D+02      0.115546D+02
   yx        -0.120364D+01     -0.178361D+00     -0.198454D+00
   yy         0.421302D+02      0.624306D+01      0.694634D+01
   zx        -0.227634D+01     -0.337319D+00     -0.375318D+00
   zy         0.505459D+01      0.749013D+00      0.833389D+00
   zz         0.665387D+02      0.986002D+01      0.109708D+02

 ----------------------------------------------------------------------
 1\1\GINC-BHC0106\Freq\RB3LYP\def2TZVP\C5H6O1\DHANAWAY\10-Jun-2022\1\\#
 N Geom=AllCheck Guess=TCheck SCRF=Check GenChk RB3LYP/def2TZVP Freq\\i
 nt_zmat_initalOpt\\0,1\H\C,1,R2\C,2,R3,1,A3\C,2,R4,1,A4,3,D4,0\H,3,R5,
 2,A5,1,D5,0\C,3,R6,2,A6,5,D6,0\O,4,R7,2,A7,1,D7,0\H,4,R8,2,A8,7,D8,0\H
 ,4,R9,2,A9,7,D9,0\H,6,R10,3,A10,2,D10,0\C,6,R11,3,A11,10,D11,0\H,11,R1
 2,6,A12,3,D12,0\\R2=1.08200856\R3=1.33499267\R4=1.50020427\R5=1.082370
 55\R6=1.45539344\R7=1.4469541\R8=1.08899691\R9=1.10358276\R10=1.080194
 62\R11=1.33992652\R12=1.0829009\A3=122.45709819\A4=118.45740404\A5=121
 .15302867\A6=119.25492345\A7=112.73016695\A8=112.04979679\A9=110.96760
 303\A10=121.39818482\A11=118.33735023\A12=124.23865372\D4=-177.0617749
 3\D5=1.81368981\D6=175.55231391\D7=-152.85336301\D8=118.63960768\D9=-1
 20.63522618\D10=175.4132923\D11=171.69027405\D12=-169.11115309\\Versio
 n=ES64L-G16RevA.03\HF=-269.4244728\RMSD=3.010e-09\RMSF=4.722e-04\ZeroP
 oint=0.0981612\Thermal=0.1031687\Dipole=0.2280986,0.0407056,-0.5663196
 \DipoleDeriv=0.0549435,-0.0002408,0.0026647,-0.0039717,0.1511474,0.012
 3567,-0.0042092,-0.0067918,-0.0312735,-0.0969062,-0.0370899,-0.0755023
 ,0.0030946,-0.2320986,0.0186857,-0.0300878,-0.0427397,-0.1404935,0.042
 1217,0.0269886,-0.1033522,0.0445054,-0.1161051,0.0072562,0.0046528,0.0
 514162,0.2924007,0.3840457,0.1087351,0.0978893,0.1829163,0.5758887,0.0
 970578,0.2183251,0.1122913,0.417174,-0.0299126,0.0014641,0.0491472,-0.
 0098518,0.1478547,0.0074942,0.0500861,-0.0047377,0.0330562,-0.2108176,
 0.0451627,0.2298358,0.1024008,-0.2836761,-0.0852841,0.1128013,-0.07737
 07,-0.140434,-0.9851715,0.1032909,-0.000182,0.085104,-0.3361004,-0.179
 0521,-0.5363638,-0.0989572,-0.5132452,-0.0442963,0.0262216,-0.0675738,
 0.0646565,0.0262854,0.0273131,-0.0620604,0.0151273,0.0092324,-0.058762
 3,-0.0648883,-0.0320536,-0.2056383,-0.2241539,-0.0220588,0.0650007,0.0
 744815,0.0430651,-0.0215009,0.0198021,-0.081755,-0.0114219,0.158896,0.
 0054796,-0.0804335,0.001733,-0.0178945,0.9150854,-0.2502051,-0.0276452
 ,-0.2759556,-0.0061602,0.1316519,0.2698987,0.0229079,0.1717631,0.05117
 11,0.020759,0.0085272,0.0241619,0.1382222,-0.0209001,-0.0076098,-0.047
 36,-0.1233508\Polar=68.0284478,-0.6194354,41.5448835,2.7671551,3.37106
 58,69.175727\PG=C01 [X(C5H6O1)]\NImag=0\\0.05561620,-0.00060576,0.0210
 6696,0.00015592,-0.00103285,0.35904874,-0.05708040,-0.00041548,0.00047
 502,0.68399984,0.00047874,-0.03215211,0.00031108,0.01888112,0.13724287
 ,0.00430153,0.00303901,-0.34060499,0.13626604,-0.00095319,0.72888451,0
 .00451532,0.00014532,0.00210768,-0.39944993,-0.00397127,-0.18157160,0.
 81839810,-0.00006732,0.00607902,0.00035486,-0.00353231,-0.05747463,-0.
 00118375,0.00666218,0.13041015,-0.02908971,-0.00100488,-0.01262965,-0.
 16928870,-0.00598025,-0.22164842,0.04701897,0.00907678,0.61571824,0.00
 454830,0.00122388,-0.00267688,-0.18150593,-0.01079530,0.03680296,-0.04
 004940,-0.00446983,0.01036373,0.56345753,0.00019072,0.00249724,-0.0001
 7284,-0.00767623,-0.07382933,0.00047417,-0.00010396,0.00502780,0.00899
 442,-0.03490795,0.51566385,0.02300140,0.00074995,-0.00789232,0.0450310
 8,0.01088414,-0.11814753,-0.01173413,-0.00222104,0.02605208,0.06012365
 ,-0.06437740,0.43297247,0.00120447,0.00009597,-0.00008794,-0.02129430,
 -0.00147508,0.01354460,-0.28151974,-0.00579446,0.11144945,-0.00152627,
 0.00019638,-0.00427517,0.29877922,0.00010917,-0.00725706,-0.00010389,0
 .00045066,0.00551557,0.00067150,-0.00762490,-0.03767336,0.00561047,-0.
 00104339,0.01191726,-0.00064156,0.00740958,0.02540488,0.00037063,-0.00
 012590,0.00091449,-0.01749758,-0.00084108,0.01238779,0.11359106,0.0040
 1828,-0.11378914,-0.00295063,-0.00014240,-0.00253244,-0.11949685,-0.00
 325417,0.11621266,-0.00355133,-0.00114171,-0.00338041,0.01383569,-0.00
 267651,-0.02668717,-0.11073042,0.00165448,-0.00625307,-0.00173405,0.00
 704746,0.01619676,0.00339844,0.00087893,0.02811953,0.78891812,-0.00051
 771,0.01113219,0.00074559,-0.00210911,0.01021240,-0.00322522,0.0003291
 4,-0.05734527,-0.00644058,0.00254856,-0.00945953,-0.00640112,0.0000429
 0,0.00193645,0.00066973,-0.12202703,0.13412739,-0.00181225,0.00066874,
 0.00110266,-0.02783961,0.00328809,-0.04076714,0.02391054,-0.00115300,-
 0.23882131,0.00355057,-0.00330184,-0.00252545,-0.00159873,-0.00284281,
 -0.00972356,0.00263605,0.04612858,0.61256015,-0.00262311,0.00033597,0.
 00126047,0.00803544,0.00759654,0.03237821,0.00420544,-0.00355703,-0.02
 179105,-0.08924447,0.00393455,-0.00727978,0.00073485,-0.00082474,0.000
 63812,-0.06794538,0.02326687,-0.02013174,0.38110279,0.00013146,0.00202
 028,0.00059426,0.00709564,0.00171414,-0.00521775,-0.00623417,-0.006305
 27,-0.00578967,0.01194268,-0.09207364,-0.04861078,0.00004778,-0.000425
 16,0.00031944,0.01434146,0.00921702,0.01454999,-0.04940318,0.13591475,
 0.00651094,-0.00235460,-0.00072901,0.00590806,-0.01188709,-0.02636306,
 -0.00019454,0.00232859,-0.01056625,0.00609083,-0.05209300,-0.12496461,
 0.00028424,-0.00001552,0.00133690,-0.01757727,0.00891936,0.01723548,0.
 12684426,0.09644604,0.35355817,0.00109599,-0.00066561,0.00027176,-0.02
 193641,0.01345656,-0.01379843,-0.00277090,0.00070791,0.00465891,-0.186
 64821,0.09576323,-0.09249830,-0.00086527,-0.00138690,-0.00069355,0.000
 64419,0.00039323,-0.00005777,0.00127923,-0.00254554,-0.00225553,0.2008
 0196,0.00072605,0.00032600,-0.00017019,-0.00512134,0.00343125,-0.00201
 401,0.00013352,0.00030232,0.00073254,0.10221348,-0.11946600,0.07096252
 ,-0.00013593,-0.00011463,-0.00000644,-0.00017051,-0.00007987,-0.000790
 25,-0.01580374,0.00765321,-0.01432829,-0.10234912,0.12409599,-0.000530
 91,-0.00003359,0.00067398,0.01118803,-0.00843912,0.01147542,0.00330922
 ,0.00025644,-0.00170997,-0.08583667,0.06228591,-0.10557761,0.00064745,
 0.00087762,0.00039585,-0.00068241,-0.00006401,-0.00004783,-0.02865279,
 0.00619821,-0.02859967,0.10001971,-0.06513684,0.12817905,-0.00104632,-
 0.00030772,0.00078334,-0.01500428,-0.02696768,0.00709105,0.00038660,-0
 .00001981,0.00496080,-0.06868389,-0.05841081,0.00749585,-0.00013451,0.
 00185580,-0.00017523,0.00149535,-0.00048870,-0.00147563,0.00554972,-0.
 00456182,-0.00245540,0.00772769,0.02117897,-0.00321032,0.07148156,-0.0
 0117112,-0.00129881,0.00000465,-0.00745093,0.00332641,0.00550228,0.002
 56355,0.00138836,0.00294847,-0.05370336,-0.24638578,0.03587335,-0.0000
 1623,-0.00043930,0.00011840,-0.00067805,0.00008958,-0.00362463,-0.0034
 6250,-0.01439844,-0.01918240,-0.00425243,-0.01627248,0.00478821,0.0674
 7267,0.27598166,0.00001075,-0.00125030,-0.00047979,0.00775329,0.012803
 59,0.00322156,0.00016450,-0.00029972,-0.00344851,0.00824009,0.04365124
 ,-0.05236197,0.00004264,-0.00125029,0.00011638,-0.00320977,0.00393854,
 0.00176828,-0.01522083,-0.03946251,-0.01735574,0.00452477,0.01513976,0
 .00000704,-0.01225353,-0.02869158,0.06293240,0.00019922,0.00008653,0.0
 0025769,0.00065222,0.00012324,0.00129449,0.00630339,-0.00046531,0.0032
 6631,0.00054998,0.00048308,0.00119123,0.00043906,-0.00011819,-0.000614
 72,-0.24831621,0.01976139,-0.13238813,-0.00269345,0.00255604,0.0030444
 7,0.00000892,-0.00003628,-0.00010733,0.00000067,-0.00002099,-0.0000621
 7,0.26139581,0.00000434,0.00058078,-0.00030480,0.00005568,0.00135654,-
 0.00068555,-0.00290162,-0.00042203,-0.00109538,0.00062577,-0.00018199,
 0.00010261,0.00022696,-0.00050249,0.00000411,0.01710382,-0.02755875,0.
 00692480,0.00286066,0.01049236,-0.00258849,0.00005409,-0.00005571,-0.0
 0004728,0.00012369,-0.00006171,0.00017453,-0.02200684,0.02368631,-0.00
 139230,-0.00029012,-0.00053844,0.00238505,0.00000513,-0.00567657,-0.02
 632650,0.00195015,-0.01043644,0.00042881,-0.00022763,-0.00107764,0.000
 48513,-0.00004210,0.00116787,-0.13469335,0.01007131,-0.14877893,0.0039
 8688,-0.00229131,0.00035855,-0.00005847,0.00006910,0.00014867,-0.00012
 110,-0.00000040,0.00015953,0.14363226,-0.00963856,0.15344238,-0.003230
 32,0.00174807,0.00080871,-0.01059127,0.00559566,-0.00934555,0.00519822
 ,0.00573678,0.04515593,0.00430339,-0.01026421,-0.03677485,0.00069571,0
 .00033442,-0.00255340,-0.37838472,0.07400798,0.12769355,-0.23471862,0.
 03594713,-0.08915366,0.00070193,-0.00002581,0.00501613,-0.00176992,0.0
 0096570,0.01037270,-0.01901037,0.00511146,0.01202144,0.69447945,0.0006
 4598,-0.00116090,-0.00013490,-0.00196320,0.00161236,0.00294786,0.00728
 632,0.00782329,-0.00477573,-0.01377381,0.00214496,0.00115080,-0.000381
 09,0.00152970,0.00027018,0.08943827,-0.07924098,-0.05460226,0.03978461
 ,-0.05687246,-0.00736807,0.00062496,-0.00022790,-0.00112184,0.00018118
 ,-0.00163910,-0.00408490,0.00026919,-0.00273223,-0.00033779,-0.1387357
 1,0.18301762,-0.00163623,0.00117555,0.00117540,0.00652212,0.00060083,-
 0.00285701,0.02767381,-0.01077877,-0.03078797,-0.03261190,0.00200402,-
 0.04601967,-0.00085322,0.00101665,-0.00618200,0.14567237,-0.05139983,-
 0.18387232,-0.06423466,-0.01140016,-0.14270170,-0.00007772,-0.00384743
 ,-0.00391652,-0.00059782,0.00243684,0.00531224,-0.02014219,0.00598106,
 0.01076206,-0.10404152,0.13078179,0.71051358,0.00035198,-0.00049945,0.
 00002465,0.00033932,-0.00024602,-0.00027613,-0.00448668,0.00314471,-0.
 00045158,-0.00346698,0.00374775,-0.00047776,0.00008834,-0.00004043,0.0
 0126262,0.00237031,0.00479248,0.02751317,-0.00368245,-0.00931749,-0.03
 704640,-0.00003914,-0.00060929,-0.00116011,-0.00000267,-0.00024630,-0.
 00036243,0.00047076,-0.00125801,-0.00034785,-0.05767350,0.01662330,0.0
 4432696,0.06573070,0.00007545,-0.00183359,-0.00009098,0.00178551,-0.00
 095546,0.00064466,0.00371589,0.00818962,-0.00227621,0.00013928,0.00414
 516,0.00252853,-0.00021677,0.00010813,-0.00103014,-0.00377062,0.006969
 36,-0.00524540,-0.00472801,0.00306319,0.00212347,0.00019962,0.00040780
 ,0.00043631,-0.00005578,-0.00029041,-0.00066837,-0.00063186,-0.0046010
 9,0.00073222,0.01957854,-0.05425435,-0.06657056,-0.01609125,0.03905162
 ,0.00011022,0.00045898,-0.00004108,-0.00090280,0.00020788,0.00009543,0
 .00205098,-0.00234882,0.00206732,-0.00152456,0.00290536,0.00207468,-0.
 00014161,-0.00002591,-0.00030481,-0.00014125,-0.00294236,-0.00813004,-
 0.00779708,-0.00533576,-0.02120906,-0.00003538,-0.00061048,-0.00102840
 ,-0.00004200,-0.00017317,0.00012857,0.00062809,0.00117295,0.00046895,0
 .04080052,-0.06272516,-0.31142610,-0.03300514,0.06941647,0.33730452\\0
 .00008124,-0.00163081,0.00000460,-0.00011726,0.00223055,-0.00004268,0.
 00002326,-0.00056232,0.00002738,0.00001651,-0.00003495,0.00000242,0.00
 000355,0.00002531,0.00000862,-0.00002607,-0.00013775,-0.00001255,-0.00
 008114,0.00005308,-0.00004562,0.00000436,-0.00000284,-0.00000218,0.000
 00002,-0.00000539,-0.00000387,0.00001115,0.00007931,0.00000087,0.00007
 971,-0.00002492,0.00006636,0.00000468,0.00001073,-0.00000334\\\@


 BE LIKE A POSTAGE STAMP.  STICK TO ONE THING UNTIL
 YOU GET THERE -- JOSH BILLINGS
 Job cpu time:       0 days  0 hours 30 minutes 37.3 seconds.
 Elapsed time:       0 days  0 hours  2 minutes 34.1 seconds.
 File lengths (MBytes):  RWF=     54 Int=      0 D2E=      0 Chk=     32 Scr=      1
 Normal termination of Gaussian 16 at Fri Jun 10 03:31:16 2022.
