 Entering Gaussian System, Link 0=g16
 Input=int_zmat_field_N50.gjf
 Output=int_zmat_field_N50.out
 Initial command:
 /software/gaussian/g16-a03/l1.exe "/local_scratch/11171313/Gau-20504.inp" -scrdir="/local_scratch/11171313/"
 Entering Link 1 = /software/gaussian/g16-a03/l1.exe PID=     20505.
  
 Copyright (c) 1988,1990,1992,1993,1995,1998,2003,2009,2016,
            Gaussian, Inc.  All Rights Reserved.
  
 This is part of the Gaussian(R) 16 program.  It is based on
 the Gaussian(R) 09 system (copyright 2009, Gaussian, Inc.),
 the Gaussian(R) 03 system (copyright 2003, Gaussian, Inc.),
 the Gaussian(R) 98 system (copyright 1998, Gaussian, Inc.),
 the Gaussian(R) 94 system (copyright 1995, Gaussian, Inc.),
 the Gaussian 92(TM) system (copyright 1992, Gaussian, Inc.),
 the Gaussian 90(TM) system (copyright 1990, Gaussian, Inc.),
 the Gaussian 88(TM) system (copyright 1988, Gaussian, Inc.),
 the Gaussian 86(TM) system (copyright 1986, Carnegie Mellon
 University), and the Gaussian 82(TM) system (copyright 1983,
 Carnegie Mellon University). Gaussian is a federally registered
 trademark of Gaussian, Inc.
  
 This software contains proprietary and confidential information,
 including trade secrets, belonging to Gaussian, Inc.
  
 This software is provided under written license and may be
 used, copied, transmitted, or stored only in accord with that
 written license.
  
 The following legend is applicable only to US Government
 contracts under FAR:
  
                    RESTRICTED RIGHTS LEGEND
  
 Use, reproduction and disclosure by the US Government is
 subject to restrictions as set forth in subparagraphs (a)
 and (c) of the Commercial Computer Software - Restricted
 Rights clause in FAR 52.227-19.
  
 Gaussian, Inc.
 340 Quinnipiac St., Bldg. 40, Wallingford CT 06492
  
  
 ---------------------------------------------------------------
 Warning -- This program may not be used in any manner that
 competes with the business of Gaussian, Inc. or will provide
 assistance to any competitor of Gaussian, Inc.  The licensee
 of this program is prohibited from giving any competitor of
 Gaussian, Inc. access to this program.  By using this program,
 the user acknowledges that Gaussian, Inc. is engaged in the
 business of creating and licensing software in the field of
 computational chemistry and represents and warrants to the
 licensee that it is not a competitor of Gaussian, Inc. and that
 it will not use this program in any manner prohibited above.
 ---------------------------------------------------------------
  

 Cite this work as:
 Gaussian 16, Revision A.03,
 M. J. Frisch, G. W. Trucks, H. B. Schlegel, G. E. Scuseria, 
 M. A. Robb, J. R. Cheeseman, G. Scalmani, V. Barone, 
 G. A. Petersson, H. Nakatsuji, X. Li, M. Caricato, A. V. Marenich, 
 J. Bloino, B. G. Janesko, R. Gomperts, B. Mennucci, H. P. Hratchian, 
 J. V. Ortiz, A. F. Izmaylov, J. L. Sonnenberg, D. Williams-Young, 
 F. Ding, F. Lipparini, F. Egidi, J. Goings, B. Peng, A. Petrone, 
 T. Henderson, D. Ranasinghe, V. G. Zakrzewski, J. Gao, N. Rega, 
 G. Zheng, W. Liang, M. Hada, M. Ehara, K. Toyota, R. Fukuda, 
 J. Hasegawa, M. Ishida, T. Nakajima, Y. Honda, O. Kitao, H. Nakai, 
 T. Vreven, K. Throssell, J. A. Montgomery, Jr., J. E. Peralta, 
 F. Ogliaro, M. J. Bearpark, J. J. Heyd, E. N. Brothers, K. N. Kudin, 
 V. N. Staroverov, T. A. Keith, R. Kobayashi, J. Normand, 
 K. Raghavachari, A. P. Rendell, J. C. Burant, S. S. Iyengar, 
 J. Tomasi, M. Cossi, J. M. Millam, M. Klene, C. Adamo, R. Cammi, 
 J. W. Ochterski, R. L. Martin, K. Morokuma, O. Farkas, 
 J. B. Foresman, and D. J. Fox, Gaussian, Inc., Wallingford CT, 2016.
 
 ******************************************
 Gaussian 16:  ES64L-G16RevA.03 25-Dec-2016
                10-Jun-2022 
 ******************************************
 %nprocshared=12
 Will use up to   12 processors via shared memory.
 %chk=checkpoint.chk
 %mem=12GB
 ----------------------------------------------------------------------
 # Opt=(Z-matrix, MaxStep=10) B3LYP/Def2TZVP geom=allcheckpoint guess=r
 ead Field=read NoSymm freq=noraman pop=none
 ----------------------------------------------------------------------
 1/8=10,10=7,18=40,26=3,29=7,38=1/1,3;
 2/12=2,15=1,29=3,40=1/2;
 3/5=44,7=101,11=2,14=-6,25=1,30=1,71=1,74=-5,116=-2/1,2,3;
 4/5=1/1;
 5/5=2,38=6/2;
 7/29=1,30=1/1,2,3,16;
 1/8=10,10=7,18=40,26=3/3(2);
 2/15=1,29=3/2;
 99//99;
 2/15=1,29=3/2;
 3/5=44,7=101,11=2,14=-2,25=1,30=1,71=1,74=-5/1,2,3;
 4/5=5,16=3,69=1/1;
 5/5=2,38=5/2;
 7/30=1/1,2,3,16;
 1/8=10,18=40,26=3/3(-5);
 2/15=1,29=3/2;
 99/9=1/99;
 Structure from the checkpoint file:  "checkpoint.chk"
 ------------------
 int_zmat_initalOpt
 ------------------
 Charge =  0 Multiplicity = 1
 Z-Matrix found in chk file.
 H
 C,1,R2
 C,2,R3,1,A3
 C,2,R4,1,A4,3,D4,0
 H,3,R5,2,A5,1,D5,0
 C,3,R6,2,A6,5,D6,0
 O,4,R7,2,A7,1,D7,0
 H,4,R8,2,A8,7,D8,0
 H,4,R9,2,A9,7,D9,0
 H,6,R10,3,A10,2,D10,0
 C,6,R11,3,A11,10,D11,0
 H,11,R12,6,A12,3,D12,0
      Variables:
 R2=1.08200632
 R3=1.33606219
 R4=1.50087212
 R5=1.08278042
 R6=1.45419866
 R7=1.44488628
 R8=1.08875385
 R9=1.10221617
 R10=1.07989105
 R11=1.34111712
 R12=1.08247682
 A3=122.64575992
 A4=119.02807148
 A5=121.27881218
 A6=119.24288079
 A7=112.11258588
 A8=112.36523974
 A9=111.05562534
 A10=121.57967362
 A11=118.12675648
 A12=124.37231952
 D4=-178.16254174
 D5=0.36266268
 D6=175.63442938
 D7=-148.61600647
 D8=118.42526566
 D9=-120.35077912
 D10=173.32504893
 D11=172.05653294
 D12=-168.89386345
 Recover connectivity data from disk.

 GradGradGradGradGradGradGradGradGradGradGradGradGradGradGradGradGradGrad
 Berny optimization.
 Initialization pass.
                       ----------------------------
                       !    Initial Parameters    !
                       ! (Angstroms and Degrees)  !
 ----------------------                            ----------------------
 !      Name          Value   Derivative information (Atomic Units)     !
 ------------------------------------------------------------------------
 !       R2          1.082    estimate D2E/DX2                          !
 !       R3          1.3361   estimate D2E/DX2                          !
 !       R4          1.5009   estimate D2E/DX2                          !
 !       R5          1.0828   estimate D2E/DX2                          !
 !       R6          1.4542   estimate D2E/DX2                          !
 !       R7          1.4449   estimate D2E/DX2                          !
 !       R8          1.0888   estimate D2E/DX2                          !
 !       R9          1.1022   estimate D2E/DX2                          !
 !       R10         1.0799   estimate D2E/DX2                          !
 !       R11         1.3411   estimate D2E/DX2                          !
 !       R12         1.0825   estimate D2E/DX2                          !
 !       A3        122.6458   estimate D2E/DX2                          !
 !       A4        119.0281   estimate D2E/DX2                          !
 !       A5        121.2788   estimate D2E/DX2                          !
 !       A6        119.2429   estimate D2E/DX2                          !
 !       A7        112.1126   estimate D2E/DX2                          !
 !       A8        112.3652   estimate D2E/DX2                          !
 !       A9        111.0556   estimate D2E/DX2                          !
 !       A10       121.5797   estimate D2E/DX2                          !
 !       A11       118.1268   estimate D2E/DX2                          !
 !       A12       124.3723   estimate D2E/DX2                          !
 !       D4       -178.1625   estimate D2E/DX2                          !
 !       D5          0.3627   estimate D2E/DX2                          !
 !       D6        175.6344   estimate D2E/DX2                          !
 !       D7       -148.616    estimate D2E/DX2                          !
 !       D8        118.4253   estimate D2E/DX2                          !
 !       D9       -120.3508   estimate D2E/DX2                          !
 !       D10       173.325    estimate D2E/DX2                          !
 !       D11       172.0565   estimate D2E/DX2                          !
 !       D12      -168.8939   estimate D2E/DX2                          !
 ------------------------------------------------------------------------
 Trust Radius=1.00D-01 FncErr=1.00D-07 GrdErr=1.00D-06 EigMax=2.50D+02 EigMin=1.00D-04
 Number of steps in this run=     40 maximum allowed number of steps=    100.
 GradGradGradGradGradGradGradGradGradGradGradGradGradGradGradGradGradGrad

 ---------------------------------------------------------------------------------------------------
                            Z-MATRIX (ANGSTROMS AND DEGREES)
   CD    Cent   Atom    N1       Length/X        N2       Alpha/Y        N3        Beta/Z          J
 ---------------------------------------------------------------------------------------------------
      1      1  H 
      2      2  C        1   1.082006(     1)
      3      3  C        2   1.336062(     2)      1  122.646(    12)
      4      4  C        2   1.500872(     3)      1  119.028(    13)      3 -178.163(    22)      0
      5      5  H        3   1.082780(     4)      2  121.279(    14)      1    0.363(    23)      0
      6      6  C        3   1.454199(     5)      2  119.243(    15)      5  175.634(    24)      0
      7      7  O        4   1.444886(     6)      2  112.113(    16)      1 -148.616(    25)      0
      8      8  H        4   1.088754(     7)      2  112.365(    17)      7  118.425(    26)      0
      9      9  H        4   1.102216(     8)      2  111.056(    18)      7 -120.351(    27)      0
     10     10  H        6   1.079891(     9)      3  121.580(    19)      2  173.325(    28)      0
     11     11  C        6   1.341117(    10)      3  118.127(    20)     10  172.057(    29)      0
     12     12  H       11   1.082477(    11)      6  124.372(    21)      3 -168.894(    30)      0
 ---------------------------------------------------------------------------------------------------
                         Z-Matrix orientation:                         
 ---------------------------------------------------------------------
 Center     Atomic      Atomic             Coordinates (Angstroms)
 Number     Number       Type             X           Y           Z
 ---------------------------------------------------------------------
      1          1           0        0.000000    0.000000    0.000000
      2          6           0        0.000000    0.000000    1.082006
      3          6           0        1.124994    0.000000    1.802736
      4          6           0       -1.311661   -0.042079    1.810287
      5          1           0        2.097554    0.005857    1.326811
      6          6           0        1.040347    0.088576    3.251765
      7          8           0       -1.255113    0.657203    3.073419
      8          1           0       -2.112026    0.438833    1.250354
      9          1           0       -1.615764   -1.080820    2.018658
     10          1           0        1.914941   -0.014811    3.876714
     11          6           0       -0.126913    0.463886    3.795126
     12          1           0       -0.259183    0.728957    4.836279
 ---------------------------------------------------------------------
                    Distance matrix (angstroms):
                    1          2          3          4          5
     1  H    0.000000
     2  C    1.082006   0.000000
     3  C    2.124963   1.336062   0.000000
     4  C    2.235925   1.500872   2.437029   0.000000
     5  H    2.481975   2.111800   1.082780   3.443660   0.000000
     6  C    3.415281   2.407908   1.454199   2.761679   2.197720
     7  O    3.384247   2.443962   2.776951   1.444886   3.836048
     8  H    2.493313   2.163693   3.313004   1.088754   4.232479
     9  H    2.802471   2.157819   2.954073   1.102216   3.930427
    10  H    4.323902   3.387862   2.219374   3.831687   2.556517
    11  C    3.825478   2.755416   2.398349   2.366267   3.354195
    12  H    4.897770   3.833160   3.413166   3.295275   4.288758
                    6          7          8          9         10
     6  C    0.000000
     7  O    2.371556   0.000000
     8  H    3.750437   2.026217   0.000000
     9  H    3.153247   2.064779   1.773672   0.000000
    10  H    1.079891   3.338581   4.829081   4.129724   0.000000
    11  C    1.341117   1.353170   3.227564   2.785433   2.098803
    12  H    2.146986   2.026006   4.046734   3.613114   2.490134
                   11         12
    11  C    0.000000
    12  H    1.082477   0.000000
 Symmetry turned off by external request.
 Stoichiometry    C5H6O
 Framework group  C1[X(C5H6O)]
 Deg. of freedom    30
 Full point group                 C1      NOp   1
 Rotational constants (GHZ):           5.5829999           5.3734196           2.8550965
 Standard basis: def2TZVP (5D, 7F)
 The following finite field(s) will be applied:
 An electric field of             -0.0012 -0.0032  0.0036
   222 basis functions,   354 primitive gaussians,   252 cartesian basis functions
    22 alpha electrons       22 beta electrons
       nuclear repulsion energy       223.5914297821 Hartrees.
 NAtoms=   12 NActive=   12 NUniq=   12 SFac= 1.00D+00 NAtFMM=   60 NAOKFM=F Big=F
 Integral buffers will be    131072 words long.
 Raffenetti 2 integral format.
 Two-electron integral symmetry is turned off.
 One-electron integrals computed using PRISM.
   1 Symmetry operations used in ECPInt.
 ECPInt:  NShTT=    4095 NPrTT=   12396 LenC2=    4075 LenP2D=   10418.
 LDataN:  DoStor=T MaxTD1= 6 Len=  172
 NBasis=   222 RedAO= T EigKep=  9.54D-05  NBF=   222
 NBsUse=   222 1.00D-06 EigRej= -1.00D+00 NBFU=   222
 The nuclear repulsion energy is now       224.2940665092 hartrees.
 Initial guess from the checkpoint file:  "checkpoint.chk"
 B after Tr=     0.000000    0.000000    0.000000
         Rot=    1.000000   -0.000000   -0.000000   -0.000000 Ang=   0.00 deg.
 Keep R1 ints in memory in canonical form, NReq=319363885.
 Requested convergence on RMS density matrix=1.00D-08 within 128 cycles.
 Requested convergence on MAX density matrix=1.00D-06.
 Requested convergence on             energy=1.00D-06.
 No special actions if energy rises.
 SCF Done:  E(RB3LYP) =  -269.423420856     A.U. after   10 cycles
            NFock= 10  Conv=0.85D-08     -V/T= 2.0050
   1 Symmetry operations used in ECPInt.
 ECPInt:  NShTT=    4095 NPrTT=   12396 LenC2=    4075 LenP2D=   10418.
 LDataN:  DoStor=T MaxTD1= 7 Len=  274
 Calling FoFJK, ICntrl=      2127 FMM=F ISym2X=0 I1Cent= 0 IOpClX= 0 NMat=1 NMatS=1 NMatT=0.
 -------------------------------------------------------------------
 Center     Atomic                   Forces (Hartrees/Bohr)
 Number     Number              X              Y              Z
 -------------------------------------------------------------------
      1        1          -0.000036071    0.000695095    0.000092812
      2        6           0.000131139   -0.001166799    0.000213396
      3        6           0.000214029    0.000043819   -0.000507733
      4        6           0.000199106    0.000893043   -0.000444914
      5        1          -0.000129254    0.000180642   -0.000033591
      6        6          -0.000489824   -0.000159815    0.000262103
      7        8          -0.000321409   -0.000251769    0.000442965
      8        1           0.000140965    0.000043597   -0.000023463
      9        1          -0.000072801   -0.000404981    0.000102496
     10        1           0.000159149    0.000204685   -0.000016788
     11        6           0.000151822   -0.000334094   -0.000177092
     12        1           0.000053150    0.000256577    0.000089809
 -------------------------------------------------------------------
 Cartesian Forces:  Max     0.001166799 RMS     0.000354252
 -----------------------------------------------------------------------------------------------
                       Internal Coordinate Forces (Hartree/Bohr or radian)
  Cent   Atom   N1       Length/X         N2         Alpha/Y        N3         Beta/Z          J
 -----------------------------------------------------------------------------------------------
      1  H 
      2  C        1  -0.000093(     1)
      3  C        2  -0.000241(     2)      1  -0.000979(    12)
      4  C        2   0.000077(     3)      1  -0.000877(    13)      3  -0.000404(    22)     0
      5  H        3  -0.000100(     4)      2  -0.000179(    14)      1   0.000019(    23)     0
      6  C        3   0.000163(     5)      2   0.000001(    15)      5  -0.000297(    24)     0
      7  O        4   0.000253(     6)      2   0.001202(    16)      1  -0.000852(    25)     0
      8  H        4  -0.000072(     7)      2  -0.000241(    17)      7  -0.000111(    26)     0
      9  H        4   0.000421(     8)      2  -0.000059(    18)      7   0.000079(    27)     0
     10  H        6   0.000100(     9)      3  -0.000157(    19)      2   0.000365(    28)     0
     11  C        6  -0.000235(    10)      3   0.000014(    20)     10  -0.000030(    29)     0
     12  H       11   0.000143(    11)      6  -0.000046(    21)      3   0.000399(    30)     0
 -----------------------------------------------------------------------------------------------
 Internal  Forces:  Max     0.001201655 RMS     0.000409216

 GradGradGradGradGradGradGradGradGradGradGradGradGradGradGradGradGradGrad
 Berny optimization.
 Search for a local minimum.
 Step number   1 out of a maximum of   40
 All quantities printed in internal units (Hartrees-Bohrs-Radians)
 Second derivative matrix not updated -- first step.
 ITU=  0
     Eigenvalues ---    0.01783   0.03457   0.05882   0.07313   0.08248
     Eigenvalues ---    0.12334   0.15089   0.18354   0.20737   0.23047
     Eigenvalues ---    0.23864   0.25572   0.29475   0.33438   0.33700
     Eigenvalues ---    0.34956   0.35661   0.35697   0.35753   0.36008
     Eigenvalues ---    0.37749   0.38186   0.39644   0.51783   0.53428
     Eigenvalues ---    0.56987   0.59501   2.40652   3.31087  39.95114
 RFO step:  Lambda=-1.96758912D-05 EMin= 1.78322817D-02
 Linear search not attempted -- first point.
 Variable       Old X    -DE/DX   Delta X   Delta X   Delta X     New X
                                 (Linear)    (Quad)   (Total)
    R2        2.04470  -0.00009   0.00000  -0.00026  -0.00026   2.04444
    R3        2.52479  -0.00024   0.00000  -0.00056  -0.00056   2.52423
    R4        2.83624   0.00008   0.00000  -0.00011  -0.00011   2.83612
    R5        2.04616  -0.00010   0.00000  -0.00027  -0.00027   2.04589
    R6        2.74804   0.00016   0.00000   0.00051   0.00051   2.74854
    R7        2.73044   0.00025   0.00000   0.00061   0.00061   2.73105
    R8        2.05745  -0.00007   0.00000  -0.00020  -0.00020   2.05724
    R9        2.08289   0.00042   0.00000   0.00126   0.00126   2.08415
   R10        2.04070   0.00010   0.00000   0.00029   0.00029   2.04098
   R11        2.53434  -0.00024   0.00000  -0.00020  -0.00020   2.53415
   R12        2.04558   0.00014   0.00000   0.00040   0.00040   2.04599
    A3        2.14057  -0.00098   0.00000  -0.00155  -0.00155   2.13902
    A4        2.07743  -0.00088   0.00000   0.00001   0.00001   2.07744
    A5        2.11671  -0.00018   0.00000  -0.00060  -0.00060   2.11611
    A6        2.08118   0.00000   0.00000  -0.00015  -0.00015   2.08103
    A7        1.95673   0.00120   0.00000   0.00270   0.00270   1.95943
    A8        1.96114  -0.00024   0.00000  -0.00053  -0.00053   1.96061
    A9        1.93829  -0.00006   0.00000  -0.00176  -0.00176   1.93653
   A10        2.12197  -0.00016   0.00000  -0.00127  -0.00127   2.12069
   A11        2.06170   0.00001   0.00000   0.00118   0.00118   2.06288
   A12        2.17071  -0.00005   0.00000  -0.00080  -0.00080   2.16991
    D4       -3.10952  -0.00040   0.00000   0.00474   0.00474  -3.10479
    D5        0.00633   0.00002   0.00000   0.00848   0.00848   0.01481
    D6        3.06540  -0.00030   0.00000  -0.00233  -0.00233   3.06307
    D7       -2.59384  -0.00085   0.00000  -0.01276  -0.01276  -2.60660
    D8        2.06691  -0.00011   0.00000   0.00223   0.00223   2.06914
    D9       -2.10052   0.00008   0.00000   0.00096   0.00096  -2.09956
   D10        3.02509   0.00036   0.00000   0.00747   0.00747   3.03256
   D11        3.00295  -0.00003   0.00000  -0.00280  -0.00280   3.00015
   D12       -2.94775   0.00040   0.00000   0.00195   0.00195  -2.94581
         Item               Value     Threshold  Converged?
 Maximum Force            0.001202     0.000450     NO 
 RMS     Force            0.000409     0.000300     NO 
 Maximum Displacement     0.012760     0.001800     NO 
 RMS     Displacement     0.003445     0.001200     NO 
 Predicted change in Energy=-9.837943D-06
 GradGradGradGradGradGradGradGradGradGradGradGradGradGradGradGradGradGrad

 ---------------------------------------------------------------------------------------------------
                            Z-MATRIX (ANGSTROMS AND DEGREES)
   CD    Cent   Atom    N1       Length/X        N2       Alpha/Y        N3        Beta/Z          J
 ---------------------------------------------------------------------------------------------------
      1      1  H 
      2      2  C        1   1.081869(     1)
      3      3  C        2   1.335765(     2)      1  122.557(    12)
      4      4  C        2   1.500812(     3)      1  119.029(    13)      3 -177.891(    22)      0
      5      5  H        3   1.082636(     4)      2  121.244(    14)      1    0.848(    23)      0
      6      6  C        3   1.454467(     5)      2  119.234(    15)      5  175.501(    24)      0
      7      7  O        4   1.445211(     6)      2  112.267(    16)      1 -149.347(    25)      0
      8      8  H        4   1.088646(     7)      2  112.335(    17)      7  118.553(    26)      0
      9      9  H        4   1.102882(     8)      2  110.955(    18)      7 -120.296(    27)      0
     10     10  H        6   1.080042(     9)      3  121.507(    19)      2  173.753(    28)      0
     11     11  C        6   1.341013(    10)      3  118.194(    20)     10  171.896(    29)      0
     12     12  H       11   1.082689(    11)      6  124.327(    21)      3 -168.782(    30)      0
 ---------------------------------------------------------------------------------------------------
                         Z-Matrix orientation:                         
 ---------------------------------------------------------------------
 Center     Atomic      Atomic             Coordinates (Angstroms)
 Number     Number       Type             X           Y           Z
 ---------------------------------------------------------------------
      1          1           0        0.000000    0.000000    0.000000
      2          6           0        0.000000    0.000000    1.081869
      3          6           0        1.125862    0.000000    1.800691
      4          6           0       -1.311387   -0.048291    1.810133
      5          1           0        2.097220    0.013703    1.322804
      6          6           0        1.042957    0.080816    3.250542
      7          8           0       -1.257059    0.636046    3.081891
      8          1           0       -2.111303    0.438131    1.254545
      9          1           0       -1.615019   -1.090090    2.007141
     10          1           0        1.920677   -0.016280    3.872372
     11          6           0       -0.125609    0.443975    3.799071
     12          1           0       -0.255877    0.704117    4.841938
 ---------------------------------------------------------------------
                    Distance matrix (angstroms):
                    1          2          3          4          5
     1  H    0.000000
     2  C    1.081869   0.000000
     3  C    2.123688   1.335765   0.000000
     4  C    2.235766   1.500812   2.437746   0.000000
     5  H    2.479583   2.111059   1.082636   3.443826   0.000000
     6  C    3.414720   2.407786   1.454467   2.763039   2.198215
     7  O    3.388629   2.446393   2.779270   1.445211   3.838344
     8  H    2.494682   2.163186   3.312019   1.088646   4.230421
     9  H    2.797355   2.157014   2.956914   1.102882   3.932861
    10  H    4.322560   3.387650   2.218977   3.834070   2.555848
    11  C    3.826988   2.756099   2.399337   2.367334   3.355295
    12  H    4.899553   3.833976   3.413820   3.297281   4.289294
                    6          7          8          9         10
     6  C    0.000000
     7  O    2.372087   0.000000
     8  H    3.749805   2.026844   0.000000
     9  H    3.159415   2.064646   1.774305   0.000000
    10  H    1.080042   3.338922   4.828703   4.139238   0.000000
    11  C    1.341013   1.353299   3.227635   2.789751   2.098689
    12  H    2.146629   2.026022   4.047560   3.619740   2.489261
                   11         12
    11  C    0.000000
    12  H    1.082689   0.000000
 Symmetry turned off by external request.
 Stoichiometry    C5H6O
 Framework group  C1[X(C5H6O)]
 Deg. of freedom    30
 Full point group                 C1      NOp   1
 Rotational constants (GHZ):           5.5829468           5.3695235           2.8518313
 Standard basis: def2TZVP (5D, 7F)
 The following finite field(s) will be applied:
 An electric field of             -0.0012 -0.0032  0.0036
   222 basis functions,   354 primitive gaussians,   252 cartesian basis functions
    22 alpha electrons       22 beta electrons
       nuclear repulsion energy       223.5453974665 Hartrees.
 NAtoms=   12 NActive=   12 NUniq=   12 SFac= 1.00D+00 NAtFMM=   60 NAOKFM=F Big=F
 Integral buffers will be    131072 words long.
 Raffenetti 2 integral format.
 Two-electron integral symmetry is turned off.
 One-electron integrals computed using PRISM.
   1 Symmetry operations used in ECPInt.
 ECPInt:  NShTT=    4095 NPrTT=   12396 LenC2=    4075 LenP2D=   10419.
 LDataN:  DoStor=T MaxTD1= 6 Len=  172
 NBasis=   222 RedAO= T EigKep=  9.52D-05  NBF=   222
 NBsUse=   222 1.00D-06 EigRej= -1.00D+00 NBFU=   222
 The nuclear repulsion energy is now       224.2508494587 hartrees.
 Initial guess from the checkpoint file:  "checkpoint.chk"
 B after Tr=    -0.003858    0.017408   -0.000229
         Rot=    0.999991   -0.003609   -0.000688   -0.002152 Ang=  -0.49 deg.
 Keep R1 ints in memory in canonical form, NReq=319363885.
 Requested convergence on RMS density matrix=1.00D-08 within 128 cycles.
 Requested convergence on MAX density matrix=1.00D-06.
 Requested convergence on             energy=1.00D-06.
 No special actions if energy rises.
 SCF Done:  E(RB3LYP) =  -269.423433831     A.U. after    9 cycles
            NFock=  9  Conv=0.27D-08     -V/T= 2.0050
   1 Symmetry operations used in ECPInt.
 ECPInt:  NShTT=    4095 NPrTT=   12396 LenC2=    4075 LenP2D=   10419.
 LDataN:  DoStor=T MaxTD1= 7 Len=  274
 Calling FoFJK, ICntrl=      2127 FMM=F ISym2X=0 I1Cent= 0 IOpClX= 0 NMat=1 NMatS=1 NMatT=0.
 -------------------------------------------------------------------
 Center     Atomic                   Forces (Hartrees/Bohr)
 Number     Number              X              Y              Z
 -------------------------------------------------------------------
      1        1          -0.000211124    0.000920402   -0.000016807
      2        6           0.000141220   -0.001206530    0.000294241
      3        6           0.000128174    0.000332870   -0.000203880
      4        6           0.000073744    0.000025028   -0.000247067
      5        1          -0.000020843   -0.000027413    0.000005138
      6        6          -0.000212385   -0.000042837    0.000216398
      7        8          -0.000044171   -0.000265394    0.000197822
      8        1           0.000041587    0.000068340   -0.000011150
      9        1          -0.000122320   -0.000037585   -0.000049968
     10        1           0.000010314    0.000048975    0.000004009
     11        6           0.000223544    0.000128015   -0.000162437
     12        1          -0.000007738    0.000056129   -0.000026300
 -------------------------------------------------------------------
 Cartesian Forces:  Max     0.001206530 RMS     0.000289693
 -----------------------------------------------------------------------------------------------
                       Internal Coordinate Forces (Hartree/Bohr or radian)
  Cent   Atom   N1       Length/X         N2         Alpha/Y        N3         Beta/Z          J
 -----------------------------------------------------------------------------------------------
      1  H 
      2  C        1   0.000017(     1)
      3  C        2   0.000012(     2)      1  -0.000363(    12)
      4  C        2  -0.000002(     3)      1  -0.000655(    13)      3   0.000184(    22)     0
      5  H        3  -0.000021(     4)      2  -0.000009(    14)      1  -0.001183(    23)     0
      6  C        3   0.000041(     5)      2  -0.000174(    15)      5  -0.001135(    24)     0
      7  O        4   0.000047(     6)      2   0.000370(    16)      1  -0.001085(    25)     0
      8  H        4   0.000006(     7)      2  -0.000103(    17)      7  -0.000120(    26)     0
      9  H        4   0.000060(     8)      2   0.000139(    18)      7  -0.000202(    27)     0
     10  H        6   0.000006(     9)      3   0.000007(    19)      2  -0.000463(    28)     0
     11  C        6  -0.000215(    10)      3  -0.000309(    20)     10  -0.000550(    29)     0
     12  H       11  -0.000011(    11)      6   0.000043(    21)      3   0.000098(    30)     0
 -----------------------------------------------------------------------------------------------
 Internal  Forces:  Max     0.001182546 RMS     0.000423837

 GradGradGradGradGradGradGradGradGradGradGradGradGradGradGradGradGradGrad
 Berny optimization.
 Search for a local minimum.
 Step number   2 out of a maximum of   40
 All quantities printed in internal units (Hartrees-Bohrs-Radians)
 Update second derivatives using D2CorN and points    1    2
 DE= -1.30D-05 DEPred=-9.84D-06 R= 1.32D+00
 TightC=F SS=  1.41D+00  RLast= 1.89D-02 DXNew= 1.6818D-01 5.6599D-02
 Trust test= 1.32D+00 RLast= 1.89D-02 DXMaxT set to 1.00D-01
 ITU=  1  0
     Eigenvalues ---    0.01376   0.03194   0.05848   0.07322   0.08329
     Eigenvalues ---    0.12387   0.14809   0.18083   0.20634   0.22650
     Eigenvalues ---    0.23863   0.25562   0.29423   0.33418   0.33688
     Eigenvalues ---    0.34957   0.35659   0.35698   0.35754   0.36007
     Eigenvalues ---    0.37752   0.38153   0.39656   0.51810   0.53405
     Eigenvalues ---    0.56988   0.59493   2.40565   3.31137  39.95113
 RFO step:  Lambda=-6.81619472D-06 EMin= 1.37634199D-02
 Quartic linear search produced a step of  0.47161.
 Variable       Old X    -DE/DX   Delta X   Delta X   Delta X     New X
                                 (Linear)    (Quad)   (Total)
    R2        2.04444   0.00002  -0.00012   0.00019   0.00007   2.04450
    R3        2.52423   0.00001  -0.00026   0.00024  -0.00003   2.52420
    R4        2.83612  -0.00000  -0.00005  -0.00035  -0.00041   2.83572
    R5        2.04589  -0.00002  -0.00013   0.00003  -0.00010   2.04579
    R6        2.74854   0.00004   0.00024   0.00012   0.00036   2.74890
    R7        2.73105   0.00005   0.00029   0.00010   0.00039   2.73144
    R8        2.05724   0.00001  -0.00010   0.00012   0.00003   2.05727
    R9        2.08415   0.00006   0.00059  -0.00029   0.00030   2.08445
   R10        2.04098   0.00001   0.00013  -0.00010   0.00004   2.04102
   R11        2.53415  -0.00022  -0.00009  -0.00042  -0.00051   2.53363
   R12        2.04599  -0.00001   0.00019  -0.00023  -0.00004   2.04595
    A3        2.13902  -0.00036  -0.00073   0.00103   0.00029   2.13931
    A4        2.07744  -0.00065   0.00000  -0.00241  -0.00241   2.07504
    A5        2.11611  -0.00001  -0.00028   0.00027  -0.00001   2.11610
    A6        2.08103  -0.00017  -0.00007  -0.00016  -0.00023   2.08080
    A7        1.95943   0.00037   0.00127  -0.00045   0.00082   1.96025
    A8        1.96061  -0.00010  -0.00025  -0.00079  -0.00104   1.95957
    A9        1.93653   0.00014  -0.00083   0.00134   0.00051   1.93704
   A10        2.12069   0.00001  -0.00060   0.00039  -0.00021   2.12048
   A11        2.06288  -0.00031   0.00055  -0.00026   0.00030   2.06317
   A12        2.16991   0.00004  -0.00038   0.00008  -0.00030   2.16961
    D4       -3.10479   0.00018   0.00223   0.00149   0.00372  -3.10106
    D5        0.01481  -0.00118   0.00400  -0.00069   0.00331   0.01811
    D6        3.06307  -0.00114  -0.00110  -0.00025  -0.00135   3.06172
    D7       -2.60660  -0.00108  -0.00602  -0.00287  -0.00888  -2.61548
    D8        2.06914  -0.00012   0.00105  -0.00196  -0.00091   2.06823
    D9       -2.09956  -0.00020   0.00045  -0.00248  -0.00203  -2.10159
   D10        3.03256  -0.00046   0.00352   0.00266   0.00618   3.03875
   D11        3.00015  -0.00055  -0.00132  -0.00035  -0.00167   2.99848
   D12       -2.94581   0.00010   0.00092  -0.00024   0.00068  -2.94513
         Item               Value     Threshold  Converged?
 Maximum Force            0.001183     0.000450     NO 
 RMS     Force            0.000424     0.000300     NO 
 Maximum Displacement     0.008885     0.001800     NO 
 RMS     Displacement     0.002317     0.001200     NO 
 Predicted change in Energy=-3.738931D-06
 GradGradGradGradGradGradGradGradGradGradGradGradGradGradGradGradGradGrad

 ---------------------------------------------------------------------------------------------------
                            Z-MATRIX (ANGSTROMS AND DEGREES)
   CD    Cent   Atom    N1       Length/X        N2       Alpha/Y        N3        Beta/Z          J
 ---------------------------------------------------------------------------------------------------
      1      1  H 
      2      2  C        1   1.081904(     1)
      3      3  C        2   1.335751(     2)      1  122.574(    12)
      4      4  C        2   1.500596(     3)      1  118.891(    13)      3 -177.678(    22)      0
      5      5  H        3   1.082585(     4)      2  121.244(    14)      1    1.038(    23)      0
      6      6  C        3   1.454657(     5)      2  119.221(    15)      5  175.424(    24)      0
      7      7  O        4   1.445417(     6)      2  112.314(    16)      1 -149.856(    25)      0
      8      8  H        4   1.088661(     7)      2  112.275(    17)      7  118.501(    26)      0
      9      9  H        4   1.103043(     8)      2  110.984(    18)      7 -120.412(    27)      0
     10     10  H        6   1.080063(     9)      3  121.495(    19)      2  174.107(    28)      0
     11     11  C        6   1.340741(    10)      3  118.211(    20)     10  171.801(    29)      0
     12     12  H       11   1.082669(    11)      6  124.310(    21)      3 -168.743(    30)      0
 ---------------------------------------------------------------------------------------------------
                         Z-Matrix orientation:                         
 ---------------------------------------------------------------------
 Center     Atomic      Atomic             Coordinates (Angstroms)
 Number     Number       Type             X           Y           Z
 ---------------------------------------------------------------------
      1          1           0        0.000000    0.000000    0.000000
      2          6           0        0.000000    0.000000    1.081904
      3          6           0        1.125639    0.000000    1.801047
      4          6           0       -1.312756   -0.053237    1.806906
      5          1           0        2.097059    0.016765    1.323499
      6          6           0        1.041877    0.078352    3.251175
      7          8           0       -1.261850    0.620873    3.084487
      8          1           0       -2.110303    0.439056    1.253056
      9          1           0       -1.618920   -1.096376    1.993531
     10          1           0        1.920307   -0.013226    3.872874
     11          6           0       -0.128445    0.434135    3.800130
     12          1           0       -0.259712    0.692545    4.843282
 ---------------------------------------------------------------------
                    Distance matrix (angstroms):
                    1          2          3          4          5
     1  H    0.000000
     2  C    1.081904   0.000000
     3  C    2.123873   1.335751   0.000000
     4  C    2.234070   1.500596   2.438983   0.000000
     5  H    2.479836   2.110997   1.082585   3.444622   0.000000
     6  C    3.414936   2.407776   1.454657   2.765416   2.198441
     7  O    3.389957   2.447057   2.780792   1.445417   3.840351
     8  H    2.493251   2.162277   3.311251   1.088661   4.229089
     9  H    2.792330   2.157314   2.961705   1.103043   3.936563
    10  H    4.322835   3.387811   2.219039   3.836994   2.555671
    11  C    3.827004   2.755672   2.399486   2.369191   3.355707
    12  H    4.899434   3.833410   3.413797   3.299193   4.289513
                    6          7          8          9         10
     6  C    0.000000
     7  O    2.372608   0.000000
     8  H    3.749510   2.026591   0.000000
     9  H    3.168831   2.065582   1.774067   0.000000
    10  H    1.080063   3.339125   4.828439   4.151056   0.000000
    11  C    1.340741   1.353374   3.227285   2.797817   2.098287
    12  H    2.146199   2.025531   4.047056   3.628879   2.488431
                   11         12
    11  C    0.000000
    12  H    1.082669   0.000000
 Symmetry turned off by external request.
 Stoichiometry    C5H6O
 Framework group  C1[X(C5H6O)]
 Deg. of freedom    30
 Full point group                 C1      NOp   1
 Rotational constants (GHZ):           5.5799916           5.3693118           2.8491496
 Standard basis: def2TZVP (5D, 7F)
 The following finite field(s) will be applied:
 An electric field of             -0.0012 -0.0032  0.0036
   222 basis functions,   354 primitive gaussians,   252 cartesian basis functions
    22 alpha electrons       22 beta electrons
       nuclear repulsion energy       223.5099736753 Hartrees.
 NAtoms=   12 NActive=   12 NUniq=   12 SFac= 1.00D+00 NAtFMM=   60 NAOKFM=F Big=F
 Integral buffers will be    131072 words long.
 Raffenetti 2 integral format.
 Two-electron integral symmetry is turned off.
 One-electron integrals computed using PRISM.
   1 Symmetry operations used in ECPInt.
 ECPInt:  NShTT=    4095 NPrTT=   12396 LenC2=    4075 LenP2D=   10418.
 LDataN:  DoStor=T MaxTD1= 6 Len=  172
 NBasis=   222 RedAO= T EigKep=  9.50D-05  NBF=   222
 NBsUse=   222 1.00D-06 EigRej= -1.00D+00 NBFU=   222
 The nuclear repulsion energy is now       224.2170526817 hartrees.
 Initial guess from the checkpoint file:  "checkpoint.chk"
 B after Tr=     0.001023    0.008315   -0.001035
         Rot=    0.999997   -0.001891    0.000351   -0.001693 Ang=  -0.29 deg.
 Keep R1 ints in memory in canonical form, NReq=319363885.
 Requested convergence on RMS density matrix=1.00D-08 within 128 cycles.
 Requested convergence on MAX density matrix=1.00D-06.
 Requested convergence on             energy=1.00D-06.
 No special actions if energy rises.
 SCF Done:  E(RB3LYP) =  -269.423439883     A.U. after    8 cycles
            NFock=  8  Conv=0.91D-08     -V/T= 2.0050
   1 Symmetry operations used in ECPInt.
 ECPInt:  NShTT=    4095 NPrTT=   12396 LenC2=    4075 LenP2D=   10418.
 LDataN:  DoStor=T MaxTD1= 7 Len=  274
 Calling FoFJK, ICntrl=      2127 FMM=F ISym2X=0 I1Cent= 0 IOpClX= 0 NMat=1 NMatS=1 NMatT=0.
 -------------------------------------------------------------------
 Center     Atomic                   Forces (Hartrees/Bohr)
 Number     Number              X              Y              Z
 -------------------------------------------------------------------
      1        1          -0.000108841    0.001000865   -0.000019012
      2        6           0.000194578   -0.001488410    0.000158882
      3        6          -0.000068395    0.000486026   -0.000119984
      4        6           0.000024500    0.000051471   -0.000137010
      5        1          -0.000006489   -0.000060403   -0.000006718
      6        6           0.000000577   -0.000005012    0.000063581
      7        8           0.000107150   -0.000225328    0.000214563
      8        1          -0.000023574    0.000027739   -0.000046448
      9        1          -0.000043948    0.000074535    0.000006259
     10        1          -0.000010944   -0.000005083   -0.000002602
     11        6          -0.000035901    0.000158769   -0.000109716
     12        1          -0.000028713   -0.000015169   -0.000001795
 -------------------------------------------------------------------
 Cartesian Forces:  Max     0.001488410 RMS     0.000322170
 -----------------------------------------------------------------------------------------------
                       Internal Coordinate Forces (Hartree/Bohr or radian)
  Cent   Atom   N1       Length/X         N2         Alpha/Y        N3         Beta/Z          J
 -----------------------------------------------------------------------------------------------
      1  H 
      2  C        1   0.000019(     1)
      3  C        2  -0.000222(     2)      1   0.000401(    12)
      4  C        2  -0.000036(     3)      1   0.000326(    13)      3  -0.000124(    22)     0
      5  H        3  -0.000004(     4)      2  -0.000017(    14)      1  -0.000728(    23)     0
      6  C        3  -0.000039(     5)      2  -0.000596(    15)      5  -0.000622(    24)     0
      7  O        4   0.000088(     6)      2  -0.000046(    16)      1  -0.000824(    25)     0
      8  H        4   0.000053(     7)      2  -0.000051(    17)      7   0.000004(    26)     0
      9  H        4  -0.000057(     8)      2   0.000132(    18)      7  -0.000028(    27)     0
     10  H        6  -0.000010(     9)      3   0.000007(    19)      2  -0.000275(    28)     0
     11  C        6   0.000049(    10)      3  -0.000401(    20)     10  -0.000264(    29)     0
     12  H       11  -0.000002(    11)      6   0.000053(    21)      3  -0.000033(    30)     0
 -----------------------------------------------------------------------------------------------
 Internal  Forces:  Max     0.000823957 RMS     0.000296451

 GradGradGradGradGradGradGradGradGradGradGradGradGradGradGradGradGradGrad
 Berny optimization.
 Search for a local minimum.
 Step number   3 out of a maximum of   40
 All quantities printed in internal units (Hartrees-Bohrs-Radians)
 Update second derivatives using D2CorN and points    1    2    3
 DE= -6.05D-06 DEPred=-3.74D-06 R= 1.62D+00
 TightC=F SS=  1.41D+00  RLast= 1.27D-02 DXNew= 1.6818D-01 3.8065D-02
 Trust test= 1.62D+00 RLast= 1.27D-02 DXMaxT set to 1.00D-01
 ITU=  1  1  0
     Eigenvalues ---    0.01321   0.03259   0.05802   0.07340   0.08215
     Eigenvalues ---    0.12399   0.14367   0.17821   0.20440   0.22233
     Eigenvalues ---    0.23866   0.25559   0.29317   0.33430   0.33679
     Eigenvalues ---    0.34959   0.35659   0.35698   0.35755   0.36008
     Eigenvalues ---    0.37753   0.38132   0.39657   0.51758   0.53391
     Eigenvalues ---    0.56988   0.59484   2.40398   3.30771  39.95124
 RFO step:  Lambda=-2.03033827D-06 EMin= 1.32131420D-02
 Quartic linear search produced a step of  0.68027.
 Variable       Old X    -DE/DX   Delta X   Delta X   Delta X     New X
                                 (Linear)    (Quad)   (Total)
    R2        2.04450   0.00002   0.00005   0.00006   0.00011   2.04461
    R3        2.52420  -0.00022  -0.00002  -0.00030  -0.00032   2.52388
    R4        2.83572  -0.00004  -0.00028   0.00019  -0.00009   2.83563
    R5        2.04579  -0.00000  -0.00007   0.00002  -0.00005   2.04574
    R6        2.74890  -0.00004   0.00024  -0.00006   0.00019   2.74909
    R7        2.73144   0.00009   0.00026   0.00026   0.00052   2.73196
    R8        2.05727   0.00005   0.00002   0.00025   0.00027   2.05754
    R9        2.08445  -0.00006   0.00021  -0.00040  -0.00019   2.08426
   R10        2.04102  -0.00001   0.00003  -0.00006  -0.00003   2.04099
   R11        2.53363   0.00005  -0.00035   0.00009  -0.00026   2.53337
   R12        2.04595  -0.00000  -0.00003   0.00001  -0.00001   2.04594
    A3        2.13931   0.00040   0.00020  -0.00054  -0.00034   2.13897
    A4        2.07504   0.00033  -0.00164   0.00020  -0.00144   2.07360
    A5        2.11610  -0.00002  -0.00001  -0.00025  -0.00026   2.11584
    A6        2.08080  -0.00060  -0.00016   0.00043   0.00027   2.08107
    A7        1.96025  -0.00005   0.00056   0.00063   0.00119   1.96144
    A8        1.95957  -0.00005  -0.00071   0.00013  -0.00058   1.95899
    A9        1.93704   0.00013   0.00035  -0.00004   0.00031   1.93735
   A10        2.12048   0.00001  -0.00014   0.00002  -0.00013   2.12036
   A11        2.06317  -0.00040   0.00020   0.00008   0.00028   2.06345
   A12        2.16961   0.00005  -0.00020   0.00017  -0.00004   2.16958
    D4       -3.10106  -0.00012   0.00253  -0.00095   0.00158  -3.09948
    D5        0.01811  -0.00073   0.00225  -0.00045   0.00180   0.01992
    D6        3.06172  -0.00062  -0.00092   0.00196   0.00104   3.06276
    D7       -2.61548  -0.00082  -0.00604  -0.00331  -0.00935  -2.62483
    D8        2.06823   0.00000  -0.00062   0.00138   0.00076   2.06899
    D9       -2.10159  -0.00003  -0.00138   0.00105  -0.00033  -2.10192
   D10        3.03875  -0.00028   0.00421  -0.00114   0.00307   3.04181
   D11        2.99848  -0.00026  -0.00114   0.00137   0.00023   2.99871
   D12       -2.94513  -0.00003   0.00046  -0.00247  -0.00200  -2.94713
         Item               Value     Threshold  Converged?
 Maximum Force            0.000824     0.000450     NO 
 RMS     Force            0.000296     0.000300     YES
 Maximum Displacement     0.009351     0.001800     NO 
 RMS     Displacement     0.001943     0.001200     NO 
 Predicted change in Energy=-1.781573D-06
 GradGradGradGradGradGradGradGradGradGradGradGradGradGradGradGradGradGrad

 ---------------------------------------------------------------------------------------------------
                            Z-MATRIX (ANGSTROMS AND DEGREES)
   CD    Cent   Atom    N1       Length/X        N2       Alpha/Y        N3        Beta/Z          J
 ---------------------------------------------------------------------------------------------------
      1      1  H 
      2      2  C        1   1.081960(     1)
      3      3  C        2   1.335581(     2)      1  122.554(    12)
      4      4  C        2   1.500551(     3)      1  118.809(    13)      3 -177.587(    22)      0
      5      5  H        3   1.082560(     4)      2  121.229(    14)      1    1.141(    23)      0
      6      6  C        3   1.454756(     5)      2  119.236(    15)      5  175.484(    24)      0
      7      7  O        4   1.445693(     6)      2  112.382(    16)      1 -150.392(    25)      0
      8      8  H        4   1.088805(     7)      2  112.242(    17)      7  118.544(    26)      0
      9      9  H        4   1.102943(     8)      2  111.002(    18)      7 -120.431(    27)      0
     10     10  H        6   1.080047(     9)      3  121.488(    19)      2  174.283(    28)      0
     11     11  C        6   1.340604(    10)      3  118.227(    20)     10  171.814(    29)      0
     12     12  H       11   1.082662(    11)      6  124.308(    21)      3 -168.858(    30)      0
 ---------------------------------------------------------------------------------------------------
                         Z-Matrix orientation:                         
 ---------------------------------------------------------------------
 Center     Atomic      Atomic             Coordinates (Angstroms)
 Number     Number       Type             X           Y           Z
 ---------------------------------------------------------------------
      1          1           0        0.000000    0.000000    0.000000
      2          6           0        0.000000    0.000000    1.081960
      3          6           0        1.125740    0.000000    1.800630
      4          6           0       -1.313669   -0.055351    1.805051
      5          1           0        2.096835    0.018438    1.322538
      6          6           0        1.042733    0.074738    3.251092
      7          8           0       -1.263851    0.607789    3.088715
      8          1           0       -2.109021    0.443380    1.253527
      9          1           0       -1.623509   -1.098886    1.982580
     10          1           0        1.922118   -0.014218    3.871794
     11          6           0       -0.128583    0.423606    3.802025
     12          1           0       -0.260287    0.677263    4.846281
 ---------------------------------------------------------------------
                    Distance matrix (angstroms):
                    1          2          3          4          5
     1  H    0.000000
     2  C    1.081960   0.000000
     3  C    2.123572   1.335581   0.000000
     4  C    2.233159   1.500551   2.440041   0.000000
     5  H    2.479146   2.110671   1.082560   3.445258   0.000000
     6  C    3.415037   2.407906   1.454756   2.767777   2.198549
     7  O    3.392180   2.448223   2.781855   1.445693   3.841995
     8  H    2.493168   2.161942   3.310526   1.088805   4.227832
     9  H    2.788181   2.157417   2.966315   1.102943   3.940181
    10  H    4.322676   3.387907   2.219041   3.839718   2.555445
    11  C    3.827711   2.755854   2.399657   2.371019   3.356263
    12  H    4.900293   3.833608   3.414052   3.300821   4.290319
                    6          7          8          9         10
     6  C    0.000000
     7  O    2.372939   0.000000
     8  H    3.749629   2.027131   0.000000
     9  H    3.177321   2.065340   1.773648   0.000000
    10  H    1.080047   3.339237   4.828540   4.161383   0.000000
    11  C    1.340604   1.353354   3.227595   2.804134   2.098078
    12  H    2.146049   2.025094   4.047271   3.635088   2.488104
                   11         12
    11  C    0.000000
    12  H    1.082662   0.000000
 Symmetry turned off by external request.
 Stoichiometry    C5H6O
 Framework group  C1[X(C5H6O)]
 Deg. of freedom    30
 Full point group                 C1      NOp   1
 Rotational constants (GHZ):           5.5772427           5.3688328           2.8463730
 Standard basis: def2TZVP (5D, 7F)
 The following finite field(s) will be applied:
 An electric field of             -0.0012 -0.0032  0.0036
   222 basis functions,   354 primitive gaussians,   252 cartesian basis functions
    22 alpha electrons       22 beta electrons
       nuclear repulsion energy       223.4740799816 Hartrees.
 NAtoms=   12 NActive=   12 NUniq=   12 SFac= 1.00D+00 NAtFMM=   60 NAOKFM=F Big=F
 Integral buffers will be    131072 words long.
 Raffenetti 2 integral format.
 Two-electron integral symmetry is turned off.
 One-electron integrals computed using PRISM.
   1 Symmetry operations used in ECPInt.
 ECPInt:  NShTT=    4095 NPrTT=   12396 LenC2=    4075 LenP2D=   10418.
 LDataN:  DoStor=T MaxTD1= 6 Len=  172
 NBasis=   222 RedAO= T EigKep=  9.47D-05  NBF=   222
 NBsUse=   222 1.00D-06 EigRej= -1.00D+00 NBFU=   222
 The nuclear repulsion energy is now       224.1826684749 hartrees.
 Initial guess from the checkpoint file:  "checkpoint.chk"
 B after Tr=    -0.000920    0.011408   -0.000498
         Rot=    0.999997   -0.002163   -0.000082   -0.001018 Ang=  -0.27 deg.
 Keep R1 ints in memory in canonical form, NReq=319363885.
 Requested convergence on RMS density matrix=1.00D-08 within 128 cycles.
 Requested convergence on MAX density matrix=1.00D-06.
 Requested convergence on             energy=1.00D-06.
 No special actions if energy rises.
 SCF Done:  E(RB3LYP) =  -269.423442382     A.U. after    9 cycles
            NFock=  9  Conv=0.27D-08     -V/T= 2.0050
   1 Symmetry operations used in ECPInt.
 ECPInt:  NShTT=    4095 NPrTT=   12396 LenC2=    4075 LenP2D=   10418.
 LDataN:  DoStor=T MaxTD1= 7 Len=  274
 Calling FoFJK, ICntrl=      2127 FMM=F ISym2X=0 I1Cent= 0 IOpClX= 0 NMat=1 NMatS=1 NMatT=0.
 -------------------------------------------------------------------
 Center     Atomic                   Forces (Hartrees/Bohr)
 Number     Number              X              Y              Z
 -------------------------------------------------------------------
      1        1          -0.000098353    0.001065930   -0.000002760
      2        6           0.000117217   -0.001519710    0.000052016
      3        6          -0.000039231    0.000480779   -0.000021200
      4        6           0.000003521   -0.000027589    0.000000037
      5        1           0.000001793   -0.000074639   -0.000010466
      6        6           0.000029446    0.000072890    0.000036371
      7        8           0.000128868   -0.000062897    0.000103708
      8        1           0.000008793    0.000028937    0.000007324
      9        1          -0.000026284    0.000008000   -0.000036224
     10        1          -0.000010537   -0.000040704    0.000001759
     11        6          -0.000092779    0.000095912   -0.000132641
     12        1          -0.000022453   -0.000026909    0.000002076
 -------------------------------------------------------------------
 Cartesian Forces:  Max     0.001519710 RMS     0.000324538
 -----------------------------------------------------------------------------------------------
                       Internal Coordinate Forces (Hartree/Bohr or radian)
  Cent   Atom   N1       Length/X         N2         Alpha/Y        N3         Beta/Z          J
 -----------------------------------------------------------------------------------------------
      1  H 
      2  C        1   0.000003(     1)
      3  C        2  -0.000180(     2)      1   0.000647(    12)
      4  C        2  -0.000063(     3)      1   0.000598(    13)      3  -0.000131(    22)     0
      5  H        3   0.000005(     4)      2  -0.000016(    14)      1  -0.000494(    23)     0
      6  C        3  -0.000081(     5)      2  -0.000750(    15)      5  -0.000363(    24)     0
      7  O        4   0.000068(     6)      2  -0.000255(    16)      1  -0.000483(    25)     0
      8  H        4   0.000003(     7)      2  -0.000014(    17)      7  -0.000057(    26)     0
      9  H        4  -0.000006(     8)      2   0.000017(    18)      7  -0.000086(    27)     0
     10  H        6  -0.000004(     9)      3   0.000006(    19)      2  -0.000149(    28)     0
     11  C        6   0.000065(    10)      3  -0.000462(    20)     10  -0.000076(    29)     0
     12  H       11  -0.000002(    11)      6   0.000036(    21)      3  -0.000051(    30)     0
 -----------------------------------------------------------------------------------------------
 Internal  Forces:  Max     0.000749759 RMS     0.000279087

 GradGradGradGradGradGradGradGradGradGradGradGradGradGradGradGradGradGrad
 Berny optimization.
 Search for a local minimum.
 Step number   4 out of a maximum of   40
 All quantities printed in internal units (Hartrees-Bohrs-Radians)
 Update second derivatives using D2CorN and points    1    2    3    4
 DE= -2.50D-06 DEPred=-1.78D-06 R= 1.40D+00
 TightC=F SS=  1.41D+00  RLast= 1.06D-02 DXNew= 1.6818D-01 3.1933D-02
 Trust test= 1.40D+00 RLast= 1.06D-02 DXMaxT set to 1.00D-01
 ITU=  1  1  1  0
     Eigenvalues ---    0.01683   0.03480   0.05758   0.07268   0.08166
     Eigenvalues ---    0.12405   0.14034   0.17717   0.20317   0.22085
     Eigenvalues ---    0.23872   0.25559   0.29267   0.33428   0.33677
     Eigenvalues ---    0.34958   0.35659   0.35699   0.35755   0.36008
     Eigenvalues ---    0.37752   0.38127   0.39655   0.51729   0.53389
     Eigenvalues ---    0.56988   0.59478   2.40318   3.30517  39.95115
 RFO step:  Lambda=-5.60832089D-07 EMin= 1.68341456D-02
 Quartic linear search produced a step of  0.35536.
 Variable       Old X    -DE/DX   Delta X   Delta X   Delta X     New X
                                 (Linear)    (Quad)   (Total)
    R2        2.04461   0.00000   0.00004  -0.00002   0.00002   2.04463
    R3        2.52388  -0.00018  -0.00011   0.00002  -0.00009   2.52379
    R4        2.83563  -0.00006  -0.00003  -0.00001  -0.00004   2.83559
    R5        2.04574   0.00000  -0.00002   0.00002   0.00001   2.04575
    R6        2.74909  -0.00008   0.00007  -0.00003   0.00004   2.74913
    R7        2.73196   0.00007   0.00019  -0.00004   0.00014   2.73211
    R8        2.05754   0.00000   0.00010  -0.00005   0.00004   2.05759
    R9        2.08426  -0.00001  -0.00007   0.00005  -0.00002   2.08424
   R10        2.04099  -0.00000  -0.00001  -0.00000  -0.00001   2.04098
   R11        2.53337   0.00006  -0.00009  -0.00001  -0.00010   2.53328
   R12        2.04594  -0.00000  -0.00000   0.00000  -0.00000   2.04593
    A3        2.13897   0.00065  -0.00012   0.00008  -0.00004   2.13893
    A4        2.07360   0.00060  -0.00051  -0.00007  -0.00058   2.07302
    A5        2.11584  -0.00002  -0.00009  -0.00005  -0.00015   2.11570
    A6        2.08107  -0.00075   0.00009   0.00005   0.00014   2.08121
    A7        1.96144  -0.00025   0.00042  -0.00008   0.00034   1.96178
    A8        1.95899  -0.00001  -0.00021  -0.00018  -0.00039   1.95860
    A9        1.93735   0.00002   0.00011   0.00007   0.00018   1.93753
   A10        2.12036   0.00001  -0.00004   0.00010   0.00005   2.12041
   A11        2.06345  -0.00046   0.00010  -0.00010  -0.00000   2.06345
   A12        2.16958   0.00004  -0.00001   0.00004   0.00003   2.16961
    D4       -3.09948  -0.00013   0.00056  -0.00074  -0.00018  -3.09966
    D5        0.01992  -0.00049   0.00064  -0.00128  -0.00064   0.01928
    D6        3.06276  -0.00036   0.00037   0.00060   0.00097   3.06373
    D7       -2.62483  -0.00048  -0.00332   0.00058  -0.00274  -2.62758
    D8        2.06899  -0.00006   0.00027  -0.00075  -0.00048   2.06851
    D9       -2.10192  -0.00009  -0.00012  -0.00083  -0.00095  -2.10286
   D10        3.04181  -0.00015   0.00109  -0.00065   0.00044   3.04226
   D11        2.99871  -0.00008   0.00008   0.00081   0.00089   2.99960
   D12       -2.94713  -0.00005  -0.00071  -0.00092  -0.00163  -2.94876
         Item               Value     Threshold  Converged?
 Maximum Force            0.000750     0.000450     NO 
 RMS     Force            0.000279     0.000300     YES
 Maximum Displacement     0.002742     0.001800     NO 
 RMS     Displacement     0.000693     0.001200     YES
 Predicted change in Energy=-3.719170D-07
 GradGradGradGradGradGradGradGradGradGradGradGradGradGradGradGradGradGrad

 ---------------------------------------------------------------------------------------------------
                            Z-MATRIX (ANGSTROMS AND DEGREES)
   CD    Cent   Atom    N1       Length/X        N2       Alpha/Y        N3        Beta/Z          J
 ---------------------------------------------------------------------------------------------------
      1      1  H 
      2      2  C        1   1.081971(     1)
      3      3  C        2   1.335532(     2)      1  122.552(    12)
      4      4  C        2   1.500527(     3)      1  118.775(    13)      3 -177.598(    22)      0
      5      5  H        3   1.082564(     4)      2  121.220(    14)      1    1.104(    23)      0
      6      6  C        3   1.454777(     5)      2  119.245(    15)      5  175.539(    24)      0
      7      7  O        4   1.445768(     6)      2  112.402(    16)      1 -150.549(    25)      0
      8      8  H        4   1.088828(     7)      2  112.220(    17)      7  118.517(    26)      0
      9      9  H        4   1.102931(     8)      2  111.012(    18)      7 -120.485(    27)      0
     10     10  H        6   1.080039(     9)      3  121.491(    19)      2  174.309(    28)      0
     11     11  C        6   1.340553(    10)      3  118.227(    20)     10  171.865(    29)      0
     12     12  H       11   1.082660(    11)      6  124.309(    21)      3 -168.952(    30)      0
 ---------------------------------------------------------------------------------------------------
                         Z-Matrix orientation:                         
 ---------------------------------------------------------------------
 Center     Atomic      Atomic             Coordinates (Angstroms)
 Number     Number       Type             X           Y           Z
 ---------------------------------------------------------------------
      1          1           0        0.000000    0.000000    0.000000
      2          6           0        0.000000    0.000000    1.081971
      3          6           0        1.125730    0.000000    1.800564
      4          6           0       -1.314075   -0.055129    1.804293
      5          1           0        2.096744    0.017844    1.322277
      6          6           0        1.042983    0.074321    3.251084
      7          8           0       -1.264342    0.604744    3.089726
      8          1           0       -2.108052    0.446653    1.253509
      9          1           0       -1.626198   -1.098552    1.978378
     10          1           0        1.922513   -0.014249    3.871622
     11          6           0       -0.128669    0.421315    3.802363
     12          1           0       -0.260789    0.673166    4.847001
 ---------------------------------------------------------------------
                    Distance matrix (angstroms):
                    1          2          3          4          5
     1  H    0.000000
     2  C    1.081971   0.000000
     3  C    2.123511   1.335532   0.000000
     4  C    2.232780   1.500527   2.440431   0.000000
     5  H    2.478925   2.110545   1.082564   3.445483   0.000000
     6  C    3.415096   2.407984   1.454777   2.768698   2.198613
     7  O    3.392740   2.448542   2.782103   1.445768   3.842555
     8  H    2.492924   2.161668   3.310003   1.088828   4.227164
     9  H    2.786631   2.157517   2.968424   1.102931   3.941713
    10  H    4.322698   3.387981   2.219087   3.840706   2.555494
    11  C    3.827796   2.755829   2.399629   2.371596   3.356498
    12  H    4.900467   3.833616   3.414142   3.301197   4.290814
                    6          7          8          9         10
     6  C    0.000000
     7  O    2.373001   0.000000
     8  H    3.749394   2.026951   0.000000
     9  H    3.181185   2.065732   1.773493   0.000000
    10  H    1.080039   3.339245   4.828291   4.165745   0.000000
    11  C    1.340553   1.353236   3.227267   2.807045   2.098061
    12  H    2.146016   2.024800   4.046834   3.637626   2.488113
                   11         12
    11  C    0.000000
    12  H    1.082660   0.000000
 Symmetry turned off by external request.
 Stoichiometry    C5H6O
 Framework group  C1[X(C5H6O)]
 Deg. of freedom    30
 Full point group                 C1      NOp   1
 Rotational constants (GHZ):           5.5762605           5.3689573           2.8454740
 Standard basis: def2TZVP (5D, 7F)
 The following finite field(s) will be applied:
 An electric field of             -0.0012 -0.0032  0.0036
   222 basis functions,   354 primitive gaussians,   252 cartesian basis functions
    22 alpha electrons       22 beta electrons
       nuclear repulsion energy       223.4645027599 Hartrees.
 NAtoms=   12 NActive=   12 NUniq=   12 SFac= 1.00D+00 NAtFMM=   60 NAOKFM=F Big=F
 Integral buffers will be    131072 words long.
 Raffenetti 2 integral format.
 Two-electron integral symmetry is turned off.
 One-electron integrals computed using PRISM.
   1 Symmetry operations used in ECPInt.
 ECPInt:  NShTT=    4095 NPrTT=   12396 LenC2=    4075 LenP2D=   10418.
 LDataN:  DoStor=T MaxTD1= 6 Len=  172
 NBasis=   222 RedAO= T EigKep=  9.46D-05  NBF=   222
 NBsUse=   222 1.00D-06 EigRej= -1.00D+00 NBFU=   222
 The nuclear repulsion energy is now       224.1733635852 hartrees.
 Initial guess from the checkpoint file:  "checkpoint.chk"
 B after Tr=    -0.000063    0.003438   -0.000290
         Rot=    1.000000   -0.000549    0.000018   -0.000128 Ang=  -0.06 deg.
 Keep R1 ints in memory in canonical form, NReq=319363885.
 Requested convergence on RMS density matrix=1.00D-08 within 128 cycles.
 Requested convergence on MAX density matrix=1.00D-06.
 Requested convergence on             energy=1.00D-06.
 No special actions if energy rises.
 SCF Done:  E(RB3LYP) =  -269.423442969     A.U. after    8 cycles
            NFock=  8  Conv=0.50D-08     -V/T= 2.0050
   1 Symmetry operations used in ECPInt.
 ECPInt:  NShTT=    4095 NPrTT=   12396 LenC2=    4075 LenP2D=   10418.
 LDataN:  DoStor=T MaxTD1= 7 Len=  274
 Calling FoFJK, ICntrl=      2127 FMM=F ISym2X=0 I1Cent= 0 IOpClX= 0 NMat=1 NMatS=1 NMatT=0.
 -------------------------------------------------------------------
 Center     Atomic                   Forces (Hartrees/Bohr)
 Number     Number              X              Y              Z
 -------------------------------------------------------------------
      1        1          -0.000084007    0.001052140   -0.000003418
      2        6           0.000102971   -0.001502423    0.000035630
      3        6          -0.000009490    0.000446316   -0.000016179
      4        6          -0.000020252    0.000041859   -0.000009197
      5        1          -0.000001430   -0.000045225   -0.000007126
      6        6           0.000016428    0.000060714    0.000020769
      7        8           0.000073792   -0.000065092    0.000036655
      8        1          -0.000005855    0.000005228   -0.000010181
      9        1          -0.000005926    0.000013572    0.000003753
     10        1          -0.000009570   -0.000039178    0.000000227
     11        6          -0.000055423    0.000040139   -0.000057152
     12        1          -0.000001238   -0.000008050    0.000006219
 -------------------------------------------------------------------
 Cartesian Forces:  Max     0.001502423 RMS     0.000316781
 -----------------------------------------------------------------------------------------------
                       Internal Coordinate Forces (Hartree/Bohr or radian)
  Cent   Atom   N1       Length/X         N2         Alpha/Y        N3         Beta/Z          J
 -----------------------------------------------------------------------------------------------
      1  H 
      2  C        1   0.000003(     1)
      3  C        2  -0.000080(     2)      1   0.000280(    12)
      4  C        2  -0.000026(     3)      1   0.000268(    13)      3  -0.000105(    22)     0
      5  H        3   0.000001(     4)      2  -0.000013(    14)      1  -0.000262(    23)     0
      6  C        3  -0.000024(     5)      2  -0.000325(    15)      5  -0.000183(    24)     0
      7  O        4   0.000005(     6)      2  -0.000138(    16)      1  -0.000228(    25)     0
      8  H        4   0.000012(     7)      2  -0.000010(    17)      7   0.000003(    26)     0
      9  H        4  -0.000011(     8)      2   0.000023(    18)      7   0.000001(    27)     0
     10  H        6  -0.000004(     9)      3   0.000003(    19)      2  -0.000107(    28)     0
     11  C        6   0.000037(    10)      3  -0.000178(    20)     10  -0.000037(    29)     0
     12  H       11   0.000004(    11)      6  -0.000002(    21)      3  -0.000016(    30)     0
 -----------------------------------------------------------------------------------------------
 Internal  Forces:  Max     0.000324849 RMS     0.000128444

 GradGradGradGradGradGradGradGradGradGradGradGradGradGradGradGradGradGrad
 Berny optimization.
 Search for a local minimum.
 Step number   5 out of a maximum of   40
 All quantities printed in internal units (Hartrees-Bohrs-Radians)
 Update second derivatives using D2CorN and points    1    2    3    4    5

 DE= -5.87D-07 DEPred=-3.72D-07 R= 1.58D+00
 Trust test= 1.58D+00 RLast= 3.79D-03 DXMaxT set to 1.00D-01
 ITU=  0  1  1  1  0
     Eigenvalues ---    0.01576   0.03684   0.05627   0.06853   0.07881
     Eigenvalues ---    0.12411   0.13629   0.17601   0.20103   0.21970
     Eigenvalues ---    0.23883   0.25560   0.29208   0.33422   0.33678
     Eigenvalues ---    0.34957   0.35659   0.35699   0.35754   0.36007
     Eigenvalues ---    0.37751   0.38127   0.39652   0.51627   0.53388
     Eigenvalues ---    0.56987   0.59478   2.40236   3.30078  39.94935
 RFO step:  Lambda=-2.27356485D-07 EMin= 1.57616537D-02
 Quartic linear search produced a step of  0.67851.
 Variable       Old X    -DE/DX   Delta X   Delta X   Delta X     New X
                                 (Linear)    (Quad)   (Total)
    R2        2.04463   0.00000   0.00001   0.00000   0.00002   2.04465
    R3        2.52379  -0.00008  -0.00006   0.00002  -0.00005   2.52374
    R4        2.83559  -0.00003  -0.00003   0.00008   0.00005   2.83563
    R5        2.04575   0.00000   0.00000  -0.00000   0.00000   2.04575
    R6        2.74913  -0.00002   0.00003  -0.00002   0.00001   2.74914
    R7        2.73211   0.00001   0.00010  -0.00006   0.00004   2.73214
    R8        2.05759   0.00001   0.00003   0.00004   0.00007   2.05765
    R9        2.08424  -0.00001  -0.00001  -0.00003  -0.00005   2.08419
   R10        2.04098  -0.00000  -0.00001  -0.00001  -0.00002   2.04096
   R11        2.53328   0.00004  -0.00007   0.00000  -0.00007   2.53321
   R12        2.04593   0.00000  -0.00000   0.00002   0.00002   2.04595
    A3        2.13893   0.00028  -0.00003  -0.00012  -0.00015   2.13878
    A4        2.07302   0.00027  -0.00039   0.00013  -0.00027   2.07276
    A5        2.11570  -0.00001  -0.00010  -0.00003  -0.00013   2.11557
    A6        2.08121  -0.00032   0.00010   0.00002   0.00012   2.08133
    A7        1.96178  -0.00014   0.00023  -0.00000   0.00023   1.96201
    A8        1.95860  -0.00001  -0.00026   0.00016  -0.00010   1.95850
    A9        1.93753   0.00002   0.00012  -0.00010   0.00003   1.93756
   A10        2.12041   0.00000   0.00004   0.00001   0.00005   2.12046
   A11        2.06345  -0.00018  -0.00000   0.00000   0.00000   2.06345
   A12        2.16961  -0.00000   0.00002  -0.00009  -0.00007   2.16954
    D4       -3.09966  -0.00010  -0.00012  -0.00090  -0.00103  -3.10069
    D5        0.01928  -0.00026  -0.00044  -0.00064  -0.00107   0.01820
    D6        3.06373  -0.00018   0.00066   0.00046   0.00112   3.06485
    D7       -2.62758  -0.00023  -0.00186   0.00035  -0.00151  -2.62908
    D8        2.06851   0.00000  -0.00032   0.00055   0.00023   2.06874
    D9       -2.10286   0.00000  -0.00064   0.00064  -0.00000  -2.10286
   D10        3.04226  -0.00011   0.00030  -0.00091  -0.00061   3.04165
   D11        2.99960  -0.00004   0.00060   0.00051   0.00111   3.00072
   D12       -2.94876  -0.00002  -0.00111  -0.00018  -0.00129  -2.95006
         Item               Value     Threshold  Converged?
 Maximum Force            0.000325     0.000450     YES
 RMS     Force            0.000128     0.000300     YES
 Maximum Displacement     0.001508     0.001800     YES
 RMS     Displacement     0.000556     0.001200     YES
 Predicted change in Energy=-1.640722D-07
 Optimization completed.
    -- Stationary point found.
                       ----------------------------
                       !   Optimized Parameters   !
                       ! (Angstroms and Degrees)  !
 ----------------------                            ----------------------
 !      Name          Value   Derivative information (Atomic Units)     !
 ------------------------------------------------------------------------
 !       R2          1.082    -DE/DX =    0.0                           !
 !       R3          1.3355   -DE/DX =   -0.0001                        !
 !       R4          1.5005   -DE/DX =    0.0                           !
 !       R5          1.0826   -DE/DX =    0.0                           !
 !       R6          1.4548   -DE/DX =    0.0                           !
 !       R7          1.4458   -DE/DX =    0.0                           !
 !       R8          1.0888   -DE/DX =    0.0                           !
 !       R9          1.1029   -DE/DX =    0.0                           !
 !       R10         1.08     -DE/DX =    0.0                           !
 !       R11         1.3406   -DE/DX =    0.0                           !
 !       R12         1.0827   -DE/DX =    0.0                           !
 !       A3        122.5515   -DE/DX =    0.0003                        !
 !       A4        118.7755   -DE/DX =    0.0003                        !
 !       A5        121.2205   -DE/DX =    0.0                           !
 !       A6        119.2446   -DE/DX =   -0.0003                        !
 !       A7        112.4019   -DE/DX =   -0.0001                        !
 !       A8        112.2196   -DE/DX =    0.0                           !
 !       A9        111.0122   -DE/DX =    0.0                           !
 !       A10       121.4907   -DE/DX =    0.0                           !
 !       A11       118.227    -DE/DX =   -0.0002                        !
 !       A12       124.3093   -DE/DX =    0.0                           !
 !       D4       -177.5977   -DE/DX =   -0.0001                        !
 !       D5          1.1044   -DE/DX =   -0.0003                        !
 !       D6        175.539    -DE/DX =   -0.0002                        !
 !       D7       -150.549    -DE/DX =   -0.0002                        !
 !       D8        118.5171   -DE/DX =    0.0                           !
 !       D9       -120.4851   -DE/DX =    0.0                           !
 !       D10       174.3085   -DE/DX =   -0.0001                        !
 !       D11       171.8645   -DE/DX =    0.0                           !
 !       D12      -168.9517   -DE/DX =    0.0                           !
 ------------------------------------------------------------------------
 GradGradGradGradGradGradGradGradGradGradGradGradGradGradGradGradGradGrad

 ---------------------------------------------------------------------------------------------------
                            Z-MATRIX (ANGSTROMS AND DEGREES)
   CD    Cent   Atom    N1       Length/X        N2       Alpha/Y        N3        Beta/Z          J
 ---------------------------------------------------------------------------------------------------
      1      1  H 
      2      2  C        1   1.081971(     1)
      3      3  C        2   1.335532(     2)      1  122.552(    12)
      4      4  C        2   1.500527(     3)      1  118.775(    13)      3 -177.598(    22)      0
      5      5  H        3   1.082564(     4)      2  121.220(    14)      1    1.104(    23)      0
      6      6  C        3   1.454777(     5)      2  119.245(    15)      5  175.539(    24)      0
      7      7  O        4   1.445768(     6)      2  112.402(    16)      1 -150.549(    25)      0
      8      8  H        4   1.088828(     7)      2  112.220(    17)      7  118.517(    26)      0
      9      9  H        4   1.102931(     8)      2  111.012(    18)      7 -120.485(    27)      0
     10     10  H        6   1.080039(     9)      3  121.491(    19)      2  174.309(    28)      0
     11     11  C        6   1.340553(    10)      3  118.227(    20)     10  171.865(    29)      0
     12     12  H       11   1.082660(    11)      6  124.309(    21)      3 -168.952(    30)      0
 ---------------------------------------------------------------------------------------------------
                         Z-Matrix orientation:                         
 ---------------------------------------------------------------------
 Center     Atomic      Atomic             Coordinates (Angstroms)
 Number     Number       Type             X           Y           Z
 ---------------------------------------------------------------------
      1          1           0        0.000000    0.000000    0.000000
      2          6           0        0.000000    0.000000    1.081971
      3          6           0        1.125730    0.000000    1.800564
      4          6           0       -1.314075   -0.055129    1.804293
      5          1           0        2.096744    0.017844    1.322277
      6          6           0        1.042983    0.074321    3.251084
      7          8           0       -1.264342    0.604744    3.089726
      8          1           0       -2.108052    0.446653    1.253509
      9          1           0       -1.626198   -1.098552    1.978378
     10          1           0        1.922513   -0.014249    3.871622
     11          6           0       -0.128669    0.421315    3.802363
     12          1           0       -0.260789    0.673166    4.847001
 ---------------------------------------------------------------------
                    Distance matrix (angstroms):
                    1          2          3          4          5
     1  H    0.000000
     2  C    1.081971   0.000000
     3  C    2.123511   1.335532   0.000000
     4  C    2.232780   1.500527   2.440431   0.000000
     5  H    2.478925   2.110545   1.082564   3.445483   0.000000
     6  C    3.415096   2.407984   1.454777   2.768698   2.198613
     7  O    3.392740   2.448542   2.782103   1.445768   3.842555
     8  H    2.492924   2.161668   3.310003   1.088828   4.227164
     9  H    2.786631   2.157517   2.968424   1.102931   3.941713
    10  H    4.322698   3.387981   2.219087   3.840706   2.555494
    11  C    3.827796   2.755829   2.399629   2.371596   3.356498
    12  H    4.900467   3.833616   3.414142   3.301197   4.290814
                    6          7          8          9         10
     6  C    0.000000
     7  O    2.373001   0.000000
     8  H    3.749394   2.026951   0.000000
     9  H    3.181185   2.065732   1.773493   0.000000
    10  H    1.080039   3.339245   4.828291   4.165745   0.000000
    11  C    1.340553   1.353236   3.227267   2.807045   2.098061
    12  H    2.146016   2.024800   4.046834   3.637626   2.488113
                   11         12
    11  C    0.000000
    12  H    1.082660   0.000000
 Symmetry turned off by external request.
 Stoichiometry    C5H6O
 Framework group  C1[X(C5H6O)]
 Deg. of freedom    30
 Full point group                 C1      NOp   1
 Rotational constants (GHZ):           5.5762605           5.3689573           2.8454740
 1\1\GINC-BHC0028\FOpt\RB3LYP\def2TZVP\C5H6O1\DHANAWAY\10-Jun-2022\1\\#
  Opt=(Z-matrix, MaxStep=10) B3LYP/Def2TZVP geom=allcheckpoint guess=re
 ad Field=read NoSymm freq=noraman pop=none\\int_zmat_initalOpt\\0,1\H\
 C,1,R2\C,2,R3,1,A3\C,2,R4,1,A4,3,D4,0\H,3,R5,2,A5,1,D5,0\C,3,R6,2,A6,5
 ,D6,0\O,4,R7,2,A7,1,D7,0\H,4,R8,2,A8,7,D8,0\H,4,R9,2,A9,7,D9,0\H,6,R10
 ,3,A10,2,D10,0\C,6,R11,3,A11,10,D11,0\H,11,R12,6,A12,3,D12,0\\R2=1.081
 9706\R3=1.33553199\R4=1.50052734\R5=1.08256386\R6=1.45477749\R7=1.4457
 6796\R8=1.0888278\R9=1.10293148\R10=1.08003931\R11=1.34055294\R12=1.08
 266041\A3=122.55153675\A4=118.77548815\A5=121.22049604\A6=119.24458405
 \A7=112.40188985\A8=112.21961016\A9=111.0121999\A10=121.49071725\A11=1
 18.22698191\A12=124.3092805\D4=-177.59771722\D5=1.10442324\D6=175.5389
 6584\D7=-150.54900408\D8=118.51705198\D9=-120.48513157\D10=174.3085086
 4\D11=171.86453146\D12=-168.95165946\\Version=ES64L-G16RevA.03\HF=-269
 .423443\RMSD=5.021e-09\RMSF=3.168e-04\Dipole=0.1930342,-0.0357927,-0.4
 334383\PG=C01 [X(C5H6O1)]\\@


 You never know when you're making a memory.
                        -- Rickie Lee Jones
 Job cpu time:       0 days  0 hours 18 minutes  3.5 seconds.
 Elapsed time:       0 days  0 hours  1 minutes 53.7 seconds.
 File lengths (MBytes):  RWF=     24 Int=      0 D2E=      0 Chk=     32 Scr=      1
 Normal termination of Gaussian 16 at Fri Jun 10 03:14:21 2022.
 Link1:  Proceeding to internal job step number  2.
 --------------------------------------------------------------------
 #N Geom=AllCheck Guess=TCheck SCRF=Check GenChk RB3LYP/def2TZVP Freq
 --------------------------------------------------------------------
 1/8=10,10=4,29=7,30=1,38=1,40=1/1,3;
 2/12=2,15=1,40=1/2;
 3/5=44,7=101,11=2,14=-4,25=1,30=1,70=2,71=2,74=-5,116=1,140=1/1,2,3;
 4/5=101/1;
 5/5=2,38=6,98=1/2;
 8/6=4,10=90,11=11/1;
[...]
     Eigenvalues ---    0.19388   0.22890   0.23771   0.24916   0.29877
     Eigenvalues ---    0.31031   0.32373   0.34573   0.35076   0.35610
     Eigenvalues ---    0.35760   0.36353   0.36468   0.42296   0.51309
     Eigenvalues ---    0.56378   0.61429   2.23751   2.89774  28.70939
 Angle between quadratic step and forces=  77.59 degrees.
 Linear search not attempted -- first point.
 Variable       Old X    -DE/DX   Delta X   Delta X   Delta X     New X
                                 (Linear)    (Quad)   (Total)
    R2        2.04463   0.00000   0.00000   0.00003   0.00003   2.04466
    R3        2.52379  -0.00008   0.00000  -0.00007  -0.00007   2.52371
    R4        2.83559  -0.00003   0.00000   0.00004   0.00004   2.83563
    R5        2.04575   0.00000   0.00000   0.00000   0.00000   2.04575
    R6        2.74913  -0.00002   0.00000   0.00003   0.00003   2.74916
    R7        2.73211   0.00001   0.00000   0.00001   0.00001   2.73211
    R8        2.05759   0.00001   0.00000   0.00006   0.00006   2.05764
    R9        2.08424  -0.00001   0.00000  -0.00005  -0.00005   2.08419
   R10        2.04098  -0.00000   0.00000  -0.00003  -0.00003   2.04095
   R11        2.53328   0.00004   0.00000  -0.00005  -0.00005   2.53323
   R12        2.04593   0.00000   0.00000   0.00002   0.00002   2.04595
    A3        2.13893   0.00028   0.00000  -0.00016  -0.00016   2.13876
    A4        2.07302   0.00027   0.00000  -0.00022  -0.00022   2.07281
    A5        2.11570  -0.00001   0.00000  -0.00015  -0.00015   2.11555
    A6        2.08121  -0.00033   0.00000   0.00010   0.00010   2.08131
    A7        1.96178  -0.00014   0.00000   0.00023   0.00023   1.96202
    A8        1.95860  -0.00001   0.00000  -0.00023  -0.00023   1.95838
    A9        1.93753   0.00002   0.00000   0.00015   0.00015   1.93768
   A10        2.12041   0.00000   0.00000   0.00011   0.00011   2.12052
   A11        2.06345  -0.00018   0.00000  -0.00008  -0.00008   2.06337
   A12        2.16961  -0.00000   0.00000  -0.00007  -0.00007   2.16954
    D4       -3.09966  -0.00010   0.00000  -0.00349  -0.00349  -3.10315
    D5        0.01928  -0.00026   0.00000  -0.00320  -0.00320   0.01608
    D6        3.06373  -0.00018   0.00000   0.00130   0.00130   3.06504
    D7       -2.62758  -0.00023   0.00000   0.00049   0.00049  -2.62709
    D8        2.06851   0.00000   0.00000   0.00008   0.00008   2.06859
    D9       -2.10286   0.00000   0.00000  -0.00017  -0.00017  -2.10303
   D10        3.04226  -0.00011   0.00000  -0.00144  -0.00144   3.04082
   D11        2.99960  -0.00004   0.00000   0.00145   0.00145   3.00105
   D12       -2.94876  -0.00002   0.00000  -0.00093  -0.00093  -2.94969
         Item               Value     Threshold  Converged?
 Maximum Force            0.000325     0.000450     YES
 RMS     Force            0.000129     0.000300     YES
 Maximum Displacement     0.003487     0.001800     NO 
 RMS     Displacement     0.000995     0.001200     YES
 Predicted change in Energy=-4.120561D-07
                       ----------------------------
                       ! Non-Optimized Parameters !
                       ! (Angstroms and Degrees)  !
 ----------------------                            ----------------------
 !      Name          Value   Derivative information (Atomic Units)     !
 ------------------------------------------------------------------------
 !       R2          1.082    -DE/DX =    0.0                           !
 !       R3          1.3355   -DE/DX =   -0.0001                        !
 !       R4          1.5006   -DE/DX =    0.0                           !
 !       R5          1.0826   -DE/DX =    0.0                           !
 !       R6          1.4548   -DE/DX =    0.0                           !
 !       R7          1.4458   -DE/DX =    0.0                           !
 !       R8          1.0889   -DE/DX =    0.0                           !
 !       R9          1.1029   -DE/DX =    0.0                           !
 !       R10         1.08     -DE/DX =    0.0                           !
 !       R11         1.3405   -DE/DX =    0.0                           !
 !       R12         1.0827   -DE/DX =    0.0                           !
 !       A3        122.5421   -DE/DX =    0.0003                        !
 !       A4        118.7631   -DE/DX =    0.0003                        !
 !       A5        121.2119   -DE/DX =    0.0                           !
 !       A6        119.2506   -DE/DX =   -0.0003                        !
 !       A7        112.4153   -DE/DX =   -0.0001                        !
 !       A8        112.2066   -DE/DX =    0.0                           !
 !       A9        111.0207   -DE/DX =    0.0                           !
 !       A10       121.497    -DE/DX =    0.0                           !
 !       A11       118.2224   -DE/DX =   -0.0002                        !
 !       A12       124.3052   -DE/DX =    0.0                           !
 !       D4       -177.7975   -DE/DX =   -0.0001                        !
 !       D5          0.921    -DE/DX =   -0.0003                        !
 !       D6        175.6137   -DE/DX =   -0.0002                        !
 !       D7       -150.5209   -DE/DX =   -0.0002                        !
 !       D8        118.5214   -DE/DX =    0.0                           !
 !       D9       -120.4949   -DE/DX =    0.0                           !
 !       D10       174.2261   -DE/DX =   -0.0001                        !
 !       D11       171.9476   -DE/DX =    0.0                           !
 !       D12      -169.0049   -DE/DX =    0.0                           !
 ------------------------------------------------------------------------
 GradGradGradGradGradGradGradGradGradGradGradGradGradGradGradGradGradGrad


 ----------------------------------------------------------------------

 Electric dipole moment (input orientation):
 (Debye = 10**-18 statcoulomb cm , SI units = C m)
                  (au)            (Debye)         (10**-30 SI)
   Tot        0.475826D+00      0.120943D+01      0.403422D+01
   x          0.193035D+00      0.490647D+00      0.163662D+01
   y         -0.357917D-01     -0.909735D-01     -0.303455D+00
   z         -0.433436D+00     -0.110168D+01     -0.367482D+01

 Dipole polarizability, Alpha (input orientation).
 (esu units = cm**3 , SI units = C**2 m**2 J**-1)
 Alpha(0;0):
               (au)            (10**-24 esu)      (10**-40 SI)
   iso        0.595321D+02      0.882175D+01      0.981552D+01
   aniso      0.280685D+02      0.415932D+01      0.462787D+01
   xx         0.677987D+02      0.100467D+02      0.111785D+02
   yx        -0.955390D+00     -0.141574D+00     -0.157523D+00
   yy         0.416571D+02      0.617295D+01      0.686833D+01
   zx         0.276647D+01      0.409948D+00      0.456129D+00
   zy         0.373633D+01      0.553667D+00      0.616037D+00
   zz         0.691406D+02      0.102456D+02      0.113998D+02

 ----------------------------------------------------------------------

 Dipole orientation:
     1          0.00000000          0.00000000          0.00000000
     6          0.82947505          0.15379741         -1.86247728
     6          3.32447621          0.22197077         -2.23642384
     6         -0.88780171          0.39999706         -4.10544243
     1          4.63525521          0.09106088         -0.67123667
     6          4.29583373          0.29062198         -4.80731336
     8          0.20345638         -0.66207117         -6.37382671
     1         -2.66608229         -0.59975691         -3.83735347
     1         -1.32485558          2.40010718         -4.49607430
     1          6.28780823          0.51916451         -5.18862573
     6          2.70552475         -0.24943989         -6.70382265
     1          3.28581381         -0.57148285         -8.63912348

 Electric dipole moment (dipole orientation):
 (Debye = 10**-18 statcoulomb cm , SI units = C m)
                  (au)            (Debye)         (10**-30 SI)
   Tot        0.475826D+00      0.120943D+01      0.403422D+01
   x          0.000000D+00      0.000000D+00      0.000000D+00
   y          0.000000D+00      0.000000D+00      0.000000D+00
   z          0.475826D+00      0.120943D+01      0.403422D+01

 Dipole polarizability, Alpha (dipole orientation).
 (esu units = cm**3 , SI units = C**2 m**2 J**-1)
 Alpha(0;0):
               (au)            (10**-24 esu)      (10**-40 SI)
   iso        0.595321D+02      0.882175D+01      0.981552D+01
   aniso      0.280685D+02      0.415932D+01      0.462787D+01
   xx         0.700847D+02      0.103855D+02      0.115554D+02
   yx        -0.660813D-02     -0.979224D-03     -0.108953D-02
   yy         0.412218D+02      0.610844D+01      0.679656D+01
   zx        -0.242106D+01     -0.358765D+00     -0.399179D+00
   zy         0.182971D+01      0.271134D+00      0.301678D+00
   zz         0.672899D+02      0.997134D+01      0.110946D+02

 ----------------------------------------------------------------------
 1\1\GINC-BHC0028\Freq\RB3LYP\def2TZVP\C5H6O1\DHANAWAY\10-Jun-2022\1\\#
 N Geom=AllCheck Guess=TCheck SCRF=Check GenChk RB3LYP/def2TZVP Freq\\i
 nt_zmat_initalOpt\\0,1\H\C,1,R2\C,2,R3,1,A3\C,2,R4,1,A4,3,D4,0\H,3,R5,
 2,A5,1,D5,0\C,3,R6,2,A6,5,D6,0\O,4,R7,2,A7,1,D7,0\H,4,R8,2,A8,7,D8,0\H
 ,4,R9,2,A9,7,D9,0\H,6,R10,3,A10,2,D10,0\C,6,R11,3,A11,10,D11,0\H,11,R1
 2,6,A12,3,D12,0\\R2=1.0819706\R3=1.33553199\R4=1.50052734\R5=1.0825638
 6\R6=1.45477749\R7=1.44576796\R8=1.0888278\R9=1.10293148\R10=1.0800393
 1\R11=1.34055294\R12=1.08266041\A3=122.55153675\A4=118.77548815\A5=121
 .22049604\A6=119.24458405\A7=112.40188985\A8=112.21961016\A9=111.01219
 99\A10=121.49071725\A11=118.22698191\A12=124.3092805\D4=-177.59771722\
 D5=1.10442324\D6=175.53896584\D7=-150.54900408\D8=118.51705198\D9=-120
 .48513157\D10=174.30850864\D11=171.86453146\D12=-168.95165946\\Version
 =ES64L-G16RevA.03\HF=-269.423443\RMSD=2.905e-09\RMSF=3.168e-04\ZeroPoi
 nt=0.0982262\Thermal=0.1032042\Dipole=0.1930355,-0.0357917,-0.4334358\
 DipoleDeriv=0.0524494,0.0002483,0.0038877,-0.0039065,0.1522104,0.01657
 45,-0.0031519,-0.0068171,-0.0510092,-0.103091,-0.0376605,-0.0939366,0.
 0016558,-0.242065,0.0231566,-0.031438,-0.0438183,-0.1466548,0.0502989,
 0.0246569,-0.0890767,0.0408761,-0.1159932,0.0124811,0.00007,0.058626,0
 .3190762,0.3873983,0.1038943,0.0998016,0.1804548,0.5695907,0.0878087,0
 .2105781,0.1024843,0.4016968,-0.0414186,0.0024321,0.0552729,-0.0094732
 ,0.1452249,0.0065444,0.0565778,-0.0058032,0.0293245,-0.2168097,0.04122
 6,0.2394665,0.0917588,-0.2870505,-0.0955241,0.1175308,-0.0807855,-0.16
 38912,-0.9760708,0.1091533,-0.0050443,0.0892217,-0.3533218,-0.1814407,
 -0.5345481,-0.0893109,-0.4928362,-0.048496,0.0273255,-0.0700012,0.0667
 956,0.0281708,0.0289045,-0.0685068,0.0162278,0.0039042,-0.0495298,-0.0
 562047,-0.0277244,-0.1904387,-0.2060682,-0.0121683,0.070128,0.0806563,
 0.0447727,-0.0177605,0.0221356,-0.0780634,-0.0059459,0.1595533,0.00564
 51,-0.0766284,0.0010168,-0.0146711,0.9084601,-0.2592657,-0.0426694,-0.
 2839727,0.0108325,0.1264255,0.2693963,0.0159968,0.1748729,0.0545697,0.
 0220589,0.0080872,0.0229743,0.1389161,-0.0184073,-0.0100079,-0.048473,
 -0.1045848\Polar=67.7986538,-0.9553904,41.6571343,2.7664683,3.736328,6
 9.1406313\PG=C01 [X(C5H6O1)]\NImag=0\\0.05531246,-0.00078780,0.0206513
 1,0.00024698,-0.00069144,0.35878504,-0.05703835,-0.00005537,0.00054891
 ,0.68115674,0.00074351,-0.03125612,0.00002435,0.01713987,0.13565205,0.
 00432015,0.00304965,-0.34000841,0.13428218,0.00037044,0.72876133,0.004
 57175,-0.00000278,0.00227681,-0.39745386,-0.00359466,-0.18106886,0.816
 61112,-0.00024049,0.00583168,0.00033135,-0.00285154,-0.05737784,-0.001
 34752,0.00190615,0.13112866,-0.02902590,-0.00119749,-0.01289797,-0.168
 49425,-0.00630673,-0.22106736,0.04704572,0.01327625,0.61517817,0.00465
 011,0.00119469,-0.00298520,-0.18098178,-0.01019551,0.03783402,-0.04031
 259,-0.00417210,0.01012227,0.56521079,0.00007747,0.00241487,-0.0001039
 8,-0.00732666,-0.07303879,0.00040483,0.00023280,0.00481566,0.00977255,
 -0.03364756,0.51354744,0.02269547,0.00048180,-0.00777792,0.04524553,0.
 01119143,-0.11841646,-0.01128050,-0.00199684,0.02605043,0.06288909,-0.
 06786246,0.43772341,0.00121505,0.00000677,-0.00014065,-0.02127643,-0.0
 0118209,0.01372073,-0.28129146,-0.00302403,0.11064417,-0.00159784,0.00
 028852,-0.00437627,0.29887134,0.00006701,-0.00721151,-0.00010485,0.000
 17729,0.00553874,0.00056629,-0.00450566,-0.03742868,0.00434994,-0.0009
 9371,0.01180675,-0.00078856,0.00437237,0.02515479,0.00041744,-0.000045
 68,0.00092181,-0.01745855,-0.00071153,0.01234498,0.11277376,0.00260075
 ,-0.11307126,-0.00289506,-0.00030510,-0.00249613,-0.11893714,-0.001531
 87,0.11533517,-0.00353613,-0.00115891,-0.00350546,0.01421889,-0.002893
 03,-0.02621373,-0.11081509,0.00230322,-0.00673683,-0.00196827,0.007659
 46,0.01595926,0.00309754,0.00112361,0.02825221,0.78215594,-0.00044225,
 0.01113414,0.00081349,-0.00285159,0.01033333,-0.00381580,0.00149657,-0
 .05768981,-0.00745753,0.00269190,-0.00959985,-0.00676021,0.00002180,0.
 00199540,0.00032770,-0.13688498,0.14164229,-0.00178658,0.00068755,0.00
 112854,-0.02822635,0.00305711,-0.04118569,0.02383910,-0.00301924,-0.23
 920748,0.00370536,-0.00347695,-0.00268314,-0.00148644,-0.00311763,-0.0
 0952628,0.00778981,0.04941180,0.61217586,-0.00246240,0.00042922,0.0013
 1885,0.00798924,0.00819430,0.03199575,0.00348731,-0.00377640,-0.022095
 45,-0.08848658,0.00363072,-0.00832812,0.00072886,-0.00082664,0.0006380
 6,-0.06727168,0.02436418,-0.01994914,0.37826774,0.00029857,0.00196598,
 0.00050077,0.00736983,0.00164856,-0.00643027,-0.00657160,-0.00597679,-
 0.00555640,0.01245553,-0.09742742,-0.05011579,0.00004763,-0.00039097,0
 .00036092,0.01564667,0.00860284,0.01488005,-0.05194377,0.14764665,0.00
 645124,-0.00257058,-0.00093649,0.00676747,-0.01309182,-0.02566835,-0.0
 0024648,0.00236591,-0.01122207,0.00403723,-0.05525894,-0.12187175,0.00
 024442,0.00003472,0.00132068,-0.01862250,0.00942857,0.01720078,0.12964
 399,0.10014579,0.34826176,0.00111665,-0.00065040,0.00028977,-0.0216295
 6,0.01276157,-0.01418120,-0.00286322,0.00070418,0.00460409,-0.18989734
 ,0.09231127,-0.09580413,-0.00091239,-0.00132043,-0.00068439,0.00061214
 ,0.00039877,0.00001910,0.00097141,-0.00253433,-0.00232911,0.20421544,0
 .00071785,0.00030856,-0.00018602,-0.00499218,0.00297800,-0.00171572,0.
 00024116,0.00035055,0.00065857,0.09898011,-0.11336639,0.06964455,-0.00
 012089,-0.00007805,0.00000117,-0.00019742,-0.00005839,-0.00071564,-0.0
 1692302,0.00720039,-0.01525895,-0.09873037,0.11771868,-0.00057779,-0.0
 0003357,0.00070174,0.01177078,-0.00809558,0.01177038,0.00326185,0.0001
 9363,-0.00188737,-0.08937291,0.06110761,-0.10873886,0.00069122,0.00084
 048,0.00038715,-0.00066561,-0.00004517,0.00007440,-0.02841837,0.005335
 22,-0.02809531,0.10377238,-0.06334598,0.13124853,-0.00117454,-0.000389
 33,0.00082610,-0.01446179,-0.02653874,0.00834540,0.00039953,-0.0000132
 9,0.00479672,-0.06790888,-0.05660759,0.00921368,-0.00009558,0.00179070
 ,-0.00018399,0.00147702,-0.00039279,-0.00137002,0.00536015,-0.00484345
 ,-0.00232344,0.00753433,0.02150371,-0.00411148,0.07036318,-0.00115683,
 -0.00139756,-0.00001978,-0.00704063,0.00372359,0.00571559,0.00255767,0
 .00146966,0.00255369,-0.05215965,-0.24629736,0.04333417,-0.00002607,-0
 .00050222,0.00013269,-0.00085962,0.00016917,-0.00339123,-0.00401223,-0
 .01695441,-0.01879744,-0.00370967,-0.01499958,0.00522168,0.06528397,0.
 27674791,0.00013852,-0.00114203,-0.00049470,0.00824434,0.01288487,0.00
 228168,-0.00011187,-0.00039201,-0.00367459,0.00970196,0.05171577,-0.05
 561371,0.00002267,-0.00121272,0.00010951,-0.00311748,0.00408028,0.0020
 4402,-0.01474623,-0.03955963,-0.01543834,0.00443840,0.01547036,-0.0007
 7205,-0.01456378,-0.03728222,0.06572969,0.00021451,0.00011465,0.000255
 07,0.00063232,0.00018460,0.00132684,0.00637990,-0.00062569,0.00337819,
 0.00056351,0.00051357,0.00117532,0.00044661,-0.00015370,-0.00063813,-0
 .24656050,0.02402337,-0.13302445,-0.00261987,0.00293268,0.00288850,0.0
 0000738,-0.00004004,-0.00010831,0.00000850,-0.00001999,-0.00006360,0.2
 5931136,-0.00002325,0.00060158,-0.00035379,0.00014040,0.00137029,-0.00
 074868,-0.00345014,-0.00041540,-0.00150262,0.00064315,-0.00021079,0.00
 004598,0.00022937,-0.00055354,0.00002651,0.02168211,-0.02864196,0.0095
 4059,0.00319911,0.01026619,-0.00272269,0.00004646,-0.00004525,-0.00001
 751,0.00014052,-0.00004595,0.00017969,-0.02660679,0.02482653,-0.001379
 22,-0.00032719,-0.00055605,0.00238808,-0.00002862,-0.00559377,-0.02606
 900,0.00242279,-0.01057822,0.00041085,-0.00024657,-0.00107231,0.000488
 08,-0.00004248,0.00115995,-0.13532527,0.01244962,-0.15037461,0.0039892
 2,-0.00244317,0.00046453,-0.00005690,0.00007189,0.00014336,-0.00011751
 ,0.00001764,0.00015589,0.14421543,-0.01219145,0.15505097,-0.00322197,0
 .00183576,0.00084969,-0.01155609,0.00566769,-0.01011925,0.00556158,0.0
 0637181,0.04627421,0.00411751,-0.01110403,-0.03675924,0.00075469,0.000
 31565,-0.00250673,-0.37365577,0.08229425,0.12329670,-0.23214075,0.0369
 7691,-0.08976767,0.00089489,0.00020149,0.00491113,-0.00151486,0.001392
 26,0.01038455,-0.01879668,0.00538657,0.01175958,0.68696019,0.00067029,
 -0.00124445,-0.00012088,-0.00161914,0.00142020,0.00320775,0.00765744,0
 .00735814,-0.00604732,-0.01494917,0.00314563,0.00013148,-0.00040897,0.
 00158022,0.00025868,0.09743671,-0.08503792,-0.05798838,0.04275304,-0.0
 6007852,-0.00636660,0.00053814,-0.00043769,-0.00157029,0.00011544,-0.0
 0161172,-0.00405066,0.00044255,-0.00263259,-0.00045603,-0.15018370,0.1
 9515722,-0.00161086,0.00131774,0.00118158,0.00585406,0.00046808,-0.003
 31348,0.02780199,-0.01203677,-0.02970465,-0.03199773,0.00133078,-0.046
 82800,-0.00074721,0.00102990,-0.00624152,0.14223061,-0.05534553,-0.182
 13470,-0.06653641,-0.01148842,-0.14321396,-0.00003366,-0.00399654,-0.0
 0383575,-0.00048007,0.00265545,0.00550162,-0.02005230,0.00653786,0.010
 77847,-0.09862120,0.13999639,0.70871107,0.00035286,-0.00053651,0.00001
 913,0.00040069,-0.00028751,-0.00024202,-0.00427497,0.00341817,-0.00051
 293,-0.00338864,0.00397203,-0.00063010,0.00005962,-0.00004650,0.001222
 53,0.00224590,0.00528077,0.02719291,-0.00382342,-0.00983467,-0.0367436
 6,-0.00004971,-0.00064038,-0.00115288,0.00001295,-0.00024920,-0.000327
 49,0.00041298,-0.00138752,-0.00030336,-0.05740272,0.01754738,0.0441927
 9,0.06545446,0.00007591,-0.00179850,-0.00008922,0.00190973,-0.00099201
 ,0.00074343,0.00403305,0.00793417,-0.00254292,0.00015234,0.00421024,0.
 00269444,-0.00020441,0.00008906,-0.00111424,-0.00385782,0.00715075,-0.
 00586803,-0.00508849,0.00349749,0.00209204,0.00018480,0.00042917,0.000
 40948,-0.00004913,-0.00030154,-0.00069168,-0.00076523,-0.00451911,0.00
 077357,0.02084532,-0.05761853,-0.07046893,-0.01723607,0.04191883,0.000
 11054,0.00047124,-0.00004719,-0.00092221,0.00023800,0.00009515,0.00177
 748,-0.00239831,0.00208236,-0.00144987,0.00292244,0.00172444,-0.000123
 56,-0.00002320,-0.00024406,-0.00004502,-0.00308723,-0.00751170,-0.0075
 1216,-0.00562907,-0.02080150,-0.00003436,-0.00062768,-0.00099622,-0.00
 003161,-0.00014023,0.00017098,0.00064744,0.00120612,0.00042177,0.04029
 825,-0.06699415,-0.31090069,-0.03271492,0.07406206,0.33600664\\0.00008
 401,-0.00105214,0.00000349,-0.00010297,0.00150242,-0.00003566,0.000009
 41,-0.00044631,0.00001613,0.00002027,-0.00004188,0.00000916,0.00000146
 ,0.00004523,0.00000713,-0.00001635,-0.00006075,-0.00002080,-0.00007386
 ,0.00006509,-0.00003670,0.00000588,-0.00000524,0.00001021,0.00000593,-
 0.00001355,-0.00000376,0.00000959,0.00003917,-0.00000021,0.00005539,-0
 .00004012,0.00005716,0.00000124,0.00000807,-0.00000615\\\@


 A leading authority is anyone who has guessed right more than once.
 -- Frank A. Clark
 Job cpu time:       0 days  0 hours 30 minutes 45.1 seconds.
 Elapsed time:       0 days  0 hours  2 minutes 34.7 seconds.
 File lengths (MBytes):  RWF=     54 Int=      0 D2E=      0 Chk=     32 Scr=      1
 Normal termination of Gaussian 16 at Fri Jun 10 03:16:56 2022.
