 Entering Gaussian System, Link 0=g16
 Input=ts_zmat_field_N100.gjf
 Output=ts_zmat_field_N100.out
 Initial command:
 /software/gaussian/g16-a03/l1.exe "/local_scratch/11174849/Gau-4955.inp" -scrdir="/local_scratch/11174849/"
 Entering Link 1 = /software/gaussian/g16-a03/l1.exe PID=      4958.
  
 Copyright (c) 1988,1990,1992,1993,1995,1998,2003,2009,2016,
            Gaussian, Inc.  All Rights Reserved.
  
 This is part of the Gaussian(R) 16 program.  It is based on
 the Gaussian(R) 09 system (copyright 2009, Gaussian, Inc.),
 the Gaussian(R) 03 system (copyright 2003, Gaussian, Inc.),
 the Gaussian(R) 98 system (copyright 1998, Gaussian, Inc.),
 the Gaussian(R) 94 system (copyright 1995, Gaussian, Inc.),
 the Gaussian 92(TM) system (copyright 1992, Gaussian, Inc.),
 the Gaussian 90(TM) system (copyright 1990, Gaussian, Inc.),
 the Gaussian 88(TM) system (copyright 1988, Gaussian, Inc.),
 the Gaussian 86(TM) system (copyright 1986, Carnegie Mellon
 University), and the Gaussian 82(TM) system (copyright 1983,
 Carnegie Mellon University). Gaussian is a federally registered
 trademark of Gaussian, Inc.
  
 This software contains proprietary and confidential information,
 including trade secrets, belonging to Gaussian, Inc.
  
 This software is provided under written license and may be
 used, copied, transmitted, or stored only in accord with that
 written license.
  
 The following legend is applicable only to US Government
 contracts under FAR:
  
                    RESTRICTED RIGHTS LEGEND
  
 Use, reproduction and disclosure by the US Government is
 subject to restrictions as set forth in subparagraphs (a)
 and (c) of the Commercial Computer Software - Restricted
 Rights clause in FAR 52.227-19.
  
 Gaussian, Inc.
 340 Quinnipiac St., Bldg. 40, Wallingford CT 06492
  
  
 ---------------------------------------------------------------
 Warning -- This program may not be used in any manner that
 competes with the business of Gaussian, Inc. or will provide
 assistance to any competitor of Gaussian, Inc.  The licensee
 of this program is prohibited from giving any competitor of
 Gaussian, Inc. access to this program.  By using this program,
 the user acknowledges that Gaussian, Inc. is engaged in the
 business of creating and licensing software in the field of
 computational chemistry and represents and warrants to the
 licensee that it is not a competitor of Gaussian, Inc. and that
 it will not use this program in any manner prohibited above.
 ---------------------------------------------------------------
  

 Cite this work as:
 Gaussian 16, Revision A.03,
 M. J. Frisch, G. W. Trucks, H. B. Schlegel, G. E. Scuseria, 
 M. A. Robb, J. R. Cheeseman, G. Scalmani, V. Barone, 
 G. A. Petersson, H. Nakatsuji, X. Li, M. Caricato, A. V. Marenich, 
 J. Bloino, B. G. Janesko, R. Gomperts, B. Mennucci, H. P. Hratchian, 
 J. V. Ortiz, A. F. Izmaylov, J. L. Sonnenberg, D. Williams-Young, 
 F. Ding, F. Lipparini, F. Egidi, J. Goings, B. Peng, A. Petrone, 
 T. Henderson, D. Ranasinghe, V. G. Zakrzewski, J. Gao, N. Rega, 
 G. Zheng, W. Liang, M. Hada, M. Ehara, K. Toyota, R. Fukuda, 
 J. Hasegawa, M. Ishida, T. Nakajima, Y. Honda, O. Kitao, H. Nakai, 
 T. Vreven, K. Throssell, J. A. Montgomery, Jr., J. E. Peralta, 
 F. Ogliaro, M. J. Bearpark, J. J. Heyd, E. N. Brothers, K. N. Kudin, 
 V. N. Staroverov, T. A. Keith, R. Kobayashi, J. Normand, 
 K. Raghavachari, A. P. Rendell, J. C. Burant, S. S. Iyengar, 
 J. Tomasi, M. Cossi, J. M. Millam, M. Klene, C. Adamo, R. Cammi, 
 J. W. Ochterski, R. L. Martin, K. Morokuma, O. Farkas, 
 J. B. Foresman, and D. J. Fox, Gaussian, Inc., Wallingford CT, 2016.
 
 ******************************************
 Gaussian 16:  ES64L-G16RevA.03 25-Dec-2016
                11-Jun-2022 
 ******************************************
 %nprocshared=12
 Will use up to   12 processors via shared memory.
 %chk=checkpoint.chk
 %mem=12GB
 ----------------------------------------------------------------------
 # Opt=(TS, CalcFC, noeigentest, Z-matrix, MaxStep=10) geom=allcheckpoi
 nt guess=read Field=read NoSymm B3LYP/Def2TZVP freq=noraman pop=none
 ----------------------------------------------------------------------
 1/5=1,8=10,10=4,11=1,18=40,26=3,29=7,38=1/1,3;
 2/12=2,15=1,29=3,40=1/2;
 3/5=44,7=101,11=2,14=-6,25=1,30=1,71=2,74=-5,116=-2,140=1/1,2,3;
 4/5=1/1;
 5/5=2,38=6/2;
 8/6=4,10=90,11=11/1;
 11/6=1,8=1,9=11,15=111,16=1,31=1/1,2,10;
 10/6=1,13=1,31=1/2;
 7/10=1,18=20,25=1,30=1/1,2,3,16;
 1/5=1,8=10,10=4,11=1,18=40,26=3/3(2);
 2/15=1,29=3/2;
 99//99;
 2/15=1,29=3/2;
 3/5=44,7=101,11=2,14=-2,25=1,30=1,71=1,74=-5/1,2,3;
 4/5=5,16=3,69=1/1;
 5/5=2,38=5/2;
 7/30=1/1,2,3,16;
 1/5=1,8=10,11=1,18=40,26=3/3(-5);
 2/15=1,29=3/2;
 99/9=1/99;
 Structure from the checkpoint file:  "checkpoint.chk"
 -----------------
 ts_zmat_initalOpt
 -----------------
 Charge =  0 Multiplicity = 1
 Z-Matrix found in chk file.
 H
 C,1,R2
 C,2,R3,1,A3
 O,2,R4,1,A4,3,D4,0
 H,2,R5,1,A5,3,D5,0
 C,4,R6,2,A6,1,D6,0
 C,3,R7,2,A7,1,D7,0
 C,6,R8,4,A8,2,D8,0
 H,6,R9,4,A9,8,D9,0
 H,6,R10,4,A10,8,D10,0
 C,7,R11,3,A11,2,D11,0
 C,8,R12,6,A12,4,D12,0
 H,8,R13,6,A13,12,D13,0
 H,11,R14,7,A14,3,D14,0
 H,11,R15,7,A15,14,D15,0
 H,11,R16,7,A16,14,D16,0
 C,12,R17,8,A17,6,D17,0
 H,12,R18,8,A18,17,D18,0
 H,17,R19,12,A19,8,D19,0
 H,17,R20,12,A20,19,D20,0
 H,17,R21,12,A21,19,D21,0
      Variables:
 R2=1.09591026
 R3=1.46270688
 R4=1.44177838
 R5=1.09686403
 R6=1.44239977
 R7=1.25003339
 R8=1.49620365
 R9=1.09418453
 R10=1.09447156
 R11=1.4828715
 R12=1.38130273
 R13=1.08885241
 R14=1.09232547
 R15=1.09210238
 R16=1.09224269
 R17=1.40551925
 R18=1.08540284
 R19=1.08622947
 R20=1.34539706
 R21=1.08433809
 A3=111.52341436
 A4=106.20280807
 A5=107.90534097
 A6=112.02904576
 A7=154.16147006
 A8=109.74219185
 A9=104.55673034
 A10=110.6445201
 A11=147.5089578
 A12=129.48852053
 A13=111.49172194
 A14=111.8734507
 A15=110.60223773
 A16=110.73605344
 A17=124.1805957
 A18=115.75896646
 A19=119.81329091
 A20=93.67308465
 A21=117.99869166
 D4=120.72932207
 D5=-122.45660992
 D6=-137.17475221
 D7=2.14268658
 D8=-34.10584299
 D9=-119.41731479
 D10=124.17727787
 D11=-24.37754487
 D12=145.92131681
 D13=155.85904309
 D14=4.64261765
 D15=-120.77363066
 D16=121.34466614
 D17=-41.61070029
 D18=-156.30792993
 D19=39.96187936
 D20=-100.37499419
 D21=145.45482575
 Recover connectivity data from disk.

 GradGradGradGradGradGradGradGradGradGradGradGradGradGradGradGradGradGrad
 Berny optimization.
 Initialization pass.
                       ----------------------------
                       !    Initial Parameters    !
                       ! (Angstroms and Degrees)  !
 ----------------------                            ----------------------
 !      Name          Value   Derivative information (Atomic Units)     !
 ------------------------------------------------------------------------
 !       R2          1.0959   calculate D2E/DX2 analytically            !
 !       R3          1.4627   calculate D2E/DX2 analytically            !
 !       R4          1.4418   calculate D2E/DX2 analytically            !
 !       R5          1.0969   calculate D2E/DX2 analytically            !
 !       R6          1.4424   calculate D2E/DX2 analytically            !
 !       R7          1.25     calculate D2E/DX2 analytically            !
 !       R8          1.4962   calculate D2E/DX2 analytically            !
 !       R9          1.0942   calculate D2E/DX2 analytically            !
 !       R10         1.0945   calculate D2E/DX2 analytically            !
 !       R11         1.4829   calculate D2E/DX2 analytically            !
 !       R12         1.3813   calculate D2E/DX2 analytically            !
 !       R13         1.0889   calculate D2E/DX2 analytically            !
 !       R14         1.0923   calculate D2E/DX2 analytically            !
 !       R15         1.0921   calculate D2E/DX2 analytically            !
 !       R16         1.0922   calculate D2E/DX2 analytically            !
 !       R17         1.4055   calculate D2E/DX2 analytically            !
 !       R18         1.0854   calculate D2E/DX2 analytically            !
 !       R19         1.0862   calculate D2E/DX2 analytically            !
 !       R20         1.3454   calculate D2E/DX2 analytically            !
 !       R21         1.0843   calculate D2E/DX2 analytically            !
 !       A3        111.5234   calculate D2E/DX2 analytically            !
 !       A4        106.2028   calculate D2E/DX2 analytically            !
 !       A5        107.9053   calculate D2E/DX2 analytically            !
 !       A6        112.029    calculate D2E/DX2 analytically            !
 !       A7        154.1615   calculate D2E/DX2 analytically            !
 !       A8        109.7422   calculate D2E/DX2 analytically            !
 !       A9        104.5567   calculate D2E/DX2 analytically            !
 !       A10       110.6445   calculate D2E/DX2 analytically            !
 !       A11       147.509    calculate D2E/DX2 analytically            !
 !       A12       129.4885   calculate D2E/DX2 analytically            !
 !       A13       111.4917   calculate D2E/DX2 analytically            !
 !       A14       111.8735   calculate D2E/DX2 analytically            !
 !       A15       110.6022   calculate D2E/DX2 analytically            !
 !       A16       110.7361   calculate D2E/DX2 analytically            !
 !       A17       124.1806   calculate D2E/DX2 analytically            !
 !       A18       115.759    calculate D2E/DX2 analytically            !
 !       A19       119.8133   calculate D2E/DX2 analytically            !
 !       A20        93.6731   calculate D2E/DX2 analytically            !
 !       A21       117.9987   calculate D2E/DX2 analytically            !
 !       D4        120.7293   calculate D2E/DX2 analytically            !
 !       D5       -122.4566   calculate D2E/DX2 analytically            !
 !       D6       -137.1748   calculate D2E/DX2 analytically            !
 !       D7          2.1427   calculate D2E/DX2 analytically            !
 !       D8        -34.1058   calculate D2E/DX2 analytically            !
 !       D9       -119.4173   calculate D2E/DX2 analytically            !
 !       D10       124.1773   calculate D2E/DX2 analytically            !
 !       D11       -24.3775   calculate D2E/DX2 analytically            !
 !       D12       145.9213   calculate D2E/DX2 analytically            !
 !       D13       155.859    calculate D2E/DX2 analytically            !
 !       D14         4.6426   calculate D2E/DX2 analytically            !
 !       D15      -120.7736   calculate D2E/DX2 analytically            !
 !       D16       121.3447   calculate D2E/DX2 analytically            !
 !       D17       -41.6107   calculate D2E/DX2 analytically            !
 !       D18      -156.3079   calculate D2E/DX2 analytically            !
 !       D19        39.9619   calculate D2E/DX2 analytically            !
 !       D20      -100.375    calculate D2E/DX2 analytically            !
 !       D21       145.4548   calculate D2E/DX2 analytically            !
 ------------------------------------------------------------------------
 Trust Radius=1.00D-01 FncErr=1.00D-07 GrdErr=1.00D-06 EigMax=2.50D+02 EigMin=1.00D-04
 Number of steps in this run=     67 maximum allowed number of steps=    114.
 Search for a saddle point of order  1.
 GradGradGradGradGradGradGradGradGradGradGradGradGradGradGradGradGradGrad

 ---------------------------------------------------------------------------------------------------
                            Z-MATRIX (ANGSTROMS AND DEGREES)
   CD    Cent   Atom    N1       Length/X        N2       Alpha/Y        N3        Beta/Z          J
 ---------------------------------------------------------------------------------------------------
      1      1  H 
      2      2  C        1   1.095910(     1)
      3      3  C        2   1.462707(     2)      1  111.523(    21)
      4      4  O        2   1.441778(     3)      1  106.203(    22)      3  120.729(    40)      0
      5      5  H        2   1.096864(     4)      1  107.905(    23)      3 -122.457(    41)      0
      6      6  C        4   1.442400(     5)      2  112.029(    24)      1 -137.175(    42)      0
      7      7  C        3   1.250033(     6)      2  154.161(    25)      1    2.143(    43)      0
      8      8  C        6   1.496204(     7)      4  109.742(    26)      2  -34.106(    44)      0
      9      9  H        6   1.094185(     8)      4  104.557(    27)      8 -119.417(    45)      0
     10     10  H        6   1.094472(     9)      4  110.645(    28)      8  124.177(    46)      0
     11     11  C        7   1.482871(    10)      3  147.509(    29)      2  -24.378(    47)      0
     12     12  C        8   1.381303(    11)      6  129.489(    30)      4  145.921(    48)      0
     13     13  H        8   1.088852(    12)      6  111.492(    31)     12  155.859(    49)      0
     14     14  H       11   1.092325(    13)      7  111.873(    32)      3    4.643(    50)      0
     15     15  H       11   1.092102(    14)      7  110.602(    33)     14 -120.774(    51)      0
     16     16  H       11   1.092243(    15)      7  110.736(    34)     14  121.345(    52)      0
     17     17  C       12   1.405519(    16)      8  124.181(    35)      6  -41.611(    53)      0
     18     18  H       12   1.085403(    17)      8  115.759(    36)     17 -156.308(    54)      0
     19     19  H       17   1.086229(    18)     12  119.813(    37)      8   39.962(    55)      0
     20     20  H       17   1.345397(    19)     12   93.673(    38)     19 -100.375(    56)      0
     21     21  H       17   1.084338(    20)     12  117.999(    39)     19  145.455(    57)      0
 ---------------------------------------------------------------------------------------------------
                         Z-Matrix orientation:                         
 ---------------------------------------------------------------------
 Center     Atomic      Atomic             Coordinates (Angstroms)
 Number     Number       Type             X           Y           Z
 ---------------------------------------------------------------------
      1          1           0        0.000000    0.000000    0.000000
      2          6           0        0.000000    0.000000    1.095910
      3          6           0        1.360709    0.000000    1.632550
      4          8           0       -0.707461    1.190113    1.498221
      5          1           0       -0.560133   -0.880704    1.433136
      6          6           0       -0.051810    1.865905    2.590899
      7          6           0        2.607059    0.020369    1.538850
      8          6           0        0.588309    0.860746    3.495624
      9          1           0       -0.854865    2.405239    3.102231
     10          1           0        0.669115    2.598418    2.214654
     11          6           0        3.803891   -0.263379    0.710606
     12          6           0        1.757730    0.954271    4.224805
     13          1           0       -0.141697    0.153441    3.886020
     14          1           0        3.533871   -0.599657   -0.292978
     15          1           0        4.419199   -1.036089    1.176443
     16          1           0        4.433356    0.624977    0.623474
     17          6           0        2.946545    1.526783    3.740621
     18          1           0        1.869678    0.236129    5.030931
     19          1           0        2.904593    2.427575    3.135057
     20          1           0        3.058211    0.649230    2.726952
     21          1           0        3.831084    1.467839    4.365045
 ---------------------------------------------------------------------
                    Distance matrix (angstroms):
                    1          2          3          4          5
     1  H    0.000000
     2  C    1.095910   0.000000
     3  C    2.125265   1.462707   0.000000
     4  O    2.039985   1.441778   2.389925   0.000000
     5  H    1.772926   1.096864   2.122508   2.077072   0.000000
     6  C    3.193281   2.391501   2.528882   1.442400   3.023685
     7  C    3.027413   2.644498   1.250033   3.515110   3.294574
     8  C    3.647791   2.616413   2.192836   2.403564   2.933501
     9  H    4.017438   3.246736   3.585234   2.017699   3.697320
    10  H    3.479107   2.907074   2.751168   2.095605   3.771752
    11  C    3.878649   3.832417   2.624593   4.804714   4.466302
    12  C    4.674315   3.713520   2.790706   3.683347   4.066084
    13  H    3.891629   2.797916   2.712728   2.663900   2.694659
    14  H    3.596341   3.844066   2.964773   4.939693   4.451890
    15  H    4.689010   4.539745   3.261269   5.598407   4.988365
    16  H    4.520394   4.502048   3.293932   5.245242   5.278027
    17  C    5.000544   4.243547   3.047934   4.300403   4.839140
    18  H    5.372311   4.363008   3.444387   4.475687   4.482793
    19  H    4.915116   4.299756   3.245647   4.154212   5.083854
    20  H    4.148545   3.526252   2.121492   3.997828   4.136070
    21  H    5.990440   5.245855   3.965329   5.375333   5.778801
                    6          7          8          9         10
     6  C    0.000000
     7  C    3.403292   0.000000
     8  C    1.496204   2.934374   0.000000
     9  H    1.094185   4.485163   2.150109   0.000000
    10  H    1.094472   3.295251   2.160305   1.774155   0.000000
    11  C    4.789132   1.482871   4.399994   5.877534   4.503207
    12  C    2.602914   2.967808   1.381303   3.192356   2.815850
    13  H    2.148943   3.616985   1.088852   2.488681   3.070635
    14  H    5.220426   2.144529   5.016235   6.310138   4.972196
    15  H    5.514723   2.128683   4.863363   6.585374   5.324533
    16  H    5.052462   2.130451   4.805124   6.105641   4.538264
    17  C    3.229086   2.689299   2.462703   3.953472   2.943411
    18  H    3.507427   3.575600   2.095047   3.980962   3.866934
    19  H    3.058088   2.903626   2.819598   3.759667   2.423570
    20  H    3.342311   1.417953   2.595383   4.305412   3.125631
    21  H    4.287530   3.403055   3.411751   4.942827   3.987536
                   11         12         13         14         15
    11  C    0.000000
    12  C    4.244884   0.000000
    13  H    5.081797   2.089002   0.000000
    14  H    1.092325   5.097031   5.616136   0.000000
    15  H    1.092102   4.509706   5.436778   1.770163   0.000000
    16  H    1.092243   4.498555   5.638942   1.774453   1.750747
    17  C    3.622252   1.405519   3.382965   4.597458   3.913058
    18  H    4.759821   1.085403   2.315878   5.640220   4.793294
    19  H    3.732014   2.161821   3.874986   4.616443   4.257601
    20  H    2.335497   2.006954   3.439282   3.302415   2.663956
    21  H    4.043857   2.140611   4.211900   5.104904   4.096671
                   16         17         18         19         20
    16  H    0.000000
    17  C    3.569379   0.000000
    18  H    5.113641   2.119040   0.000000
    19  H    3.448844   1.086229   3.076983   0.000000
    20  H    2.513212   1.345397   2.625182   1.831027   0.000000
    21  H    3.882332   1.084338   2.409902   1.814483   1.987662
                   21
    21  H    0.000000
 Symmetry turned off by external request.
 Stoichiometry    C8H12O
 Framework group  C1[X(C8H12O)]
 Deg. of freedom    57
 Full point group                 C1      NOp   1
 Rotational constants (GHZ):           1.9944358           1.4896869           0.9599588
 Standard basis: def2TZVP (5D, 7F)
 The following finite field(s) will be applied:
 An electric field of             -0.0081  0.0025 -0.0054
   351 basis functions,   555 primitive gaussians,   396 cartesian basis functions
    34 alpha electrons       34 beta electrons
       nuclear repulsion energy       444.9679548577 Hartrees.
 NAtoms=   21 NActive=   21 NUniq=   21 SFac= 1.00D+00 NAtFMM=   60 NAOKFM=F Big=F
 Integral buffers will be    131072 words long.
 Raffenetti 2 integral format.
 Two-electron integral symmetry is turned off.
 One-electron integrals computed using PRISM.
   1 Symmetry operations used in ECPInt.
 ECPInt:  NShTT=   10878 NPrTT=   32112 LenC2=   10633 LenP2D=   24934.
 LDataN:  DoStor=T MaxTD1= 6 Len=  172
 NBasis=   351 RedAO= T EigKep=  2.09D-05  NBF=   351
 NBsUse=   351 1.00D-06 EigRej= -1.00D+00 NBFU=   351
 The nuclear repulsion energy is now       442.1748952332 hartrees.
 Initial guess from the checkpoint file:  "checkpoint.chk"
 B after Tr=     0.000000   -0.000000    0.000000
         Rot=    1.000000    0.000000    0.000000   -0.000000 Ang=   0.00 deg.
 Requested convergence on RMS density matrix=1.00D-08 within 128 cycles.
 Requested convergence on MAX density matrix=1.00D-06.
 Requested convergence on             energy=1.00D-06.
 No special actions if energy rises.
 SCF Done:  E(RB3LYP) =  -387.298898621     A.U. after   11 cycles
            NFock= 11  Conv=0.30D-08     -V/T= 2.0053
 DoSCS=F DFT=T ScalE2(SS,OS)=  1.000000  1.000000
 Range of M.O.s used for correlation:     1   351
 NBasis=   351 NAE=    34 NBE=    34 NFC=     0 NFV=     0
 NROrb=    351 NOA=    34 NOB=    34 NVA=   317 NVB=   317

 **** Warning!!: The largest alpha MO coefficient is  0.33849838D+02

   1 Symmetry operations used in ECPInt.
 ECPInt:  NShTT=   10878 NPrTT=   32112 LenC2=   10633 LenP2D=   24934.
 LDataN:  DoStor=T MaxTD1= 7 Len=  274
 Symmetrizing basis deriv contribution to polar:
 IMax=3 JMax=2 DiffMx= 0.00D+00
 G2DrvN: will do    22 centers at a time, making    1 passes.
 Calling FoFCou, ICntrl=  3107 FMM=F I1Cent=   0 AccDes= 0.00D+00.
 End of G2Drv F.D. properties file   721 does not exist.
 End of G2Drv F.D. properties file   722 does not exist.
 End of G2Drv F.D. properties file   788 does not exist.
          IDoAtm=111111111111111111111
          Differentiating once with respect to nuclear coordinates.
 CalDSu exits because no D1Ps are significant.
          There are    66 degrees of freedom in the 1st order CPHF.  IDoFFX=6 NUNeed=     0.
     60 vectors produced by pass  0 Test12= 1.63D-14 1.52D-09 XBig12= 1.64D-01 1.42D-01.
 AX will form    60 AO Fock derivatives at one time.
     60 vectors produced by pass  1 Test12= 1.63D-14 1.52D-09 XBig12= 1.92D-02 3.20D-02.
     60 vectors produced by pass  2 Test12= 1.63D-14 1.52D-09 XBig12= 2.76D-04 2.37D-03.
     60 vectors produced by pass  3 Test12= 1.63D-14 1.52D-09 XBig12= 1.09D-06 1.19D-04.
     60 vectors produced by pass  4 Test12= 1.63D-14 1.52D-09 XBig12= 2.08D-09 4.67D-06.
     54 vectors produced by pass  5 Test12= 1.63D-14 1.52D-09 XBig12= 2.98D-12 2.01D-07.
      9 vectors produced by pass  6 Test12= 1.63D-14 1.52D-09 XBig12= 3.94D-15 6.69D-09.
 InvSVY:  IOpt=1 It=  1 EMax= 4.72D-16
 Solved reduced A of dimension   363 with    66 vectors.
 End of Minotr F.D. properties file   721 does not exist.
 End of Minotr F.D. properties file   722 does not exist.
 End of Minotr F.D. properties file   788 does not exist.
   1 Symmetry operations used in ECPInt.
 ECPInt:  NShTT=   10878 NPrTT=   32112 LenC2=   10633 LenP2D=   24934.
 LDataN:  DoStor=T MaxTD1= 8 Len=  415
 Calling FoFJK, ICntrl=    100147 FMM=F ISym2X=0 I1Cent= 0 IOpClX= 0 NMat=1 NMatS=1 NMatT=0.
 -------------------------------------------------------------------
 Center     Atomic                   Forces (Hartrees/Bohr)
 Number     Number              X              Y              Z
 -------------------------------------------------------------------
      1        1           0.001403627   -0.000357179   -0.000468777
      2        6          -0.000007653    0.000059634    0.000424555
      3        6          -0.000984609   -0.000137411    0.000088598
      4        8          -0.001653328    0.000498022   -0.001122569
      5        1          -0.000125783   -0.000122186    0.000091889
      6        6           0.001003685   -0.000131910    0.000982004
      7        6           0.000190244    0.000112016   -0.000586873
      8        6          -0.000133758    0.000132517   -0.000364140
      9        1          -0.000342292    0.000181995    0.000042031
     10        1           0.000044653   -0.000044169    0.000055809
     11        6           0.000217294   -0.000015066    0.000230192
     12        6           0.000724087   -0.000164360   -0.000069912
     13        1          -0.000101509    0.000018047    0.000105080
     14        1          -0.000085366   -0.000100598   -0.000050529
     15        1           0.000041802    0.000151424    0.000017554
     16        1           0.000088569   -0.000141318    0.000183341
     17        6          -0.000272533    0.000114126    0.000406053
     18        1           0.000040470    0.000137137   -0.000005832
     19        1           0.000031691    0.000005696   -0.000133612
     20        1          -0.000132334   -0.000051906    0.000329606
     21        1           0.000053043   -0.000144512   -0.000154470
 -------------------------------------------------------------------
 Cartesian Forces:  Max     0.001653328 RMS     0.000431691
 -----------------------------------------------------------------------------------------------
                       Internal Coordinate Forces (Hartree/Bohr or radian)
  Cent   Atom   N1       Length/X         N2         Alpha/Y        N3         Beta/Z          J
 -----------------------------------------------------------------------------------------------
      1  H 
      2  C        1   0.000469(     1)
      3  C        2  -0.000538(     2)      1   0.001183(    21)
      4  O        2   0.000836(     3)      1   0.000034(    22)      3  -0.000506(    40)     0
      5  H        2   0.000191(     4)      1   0.000073(    23)      3  -0.000080(    41)     0
      6  C        4   0.001344(     5)      2  -0.001226(    24)      1  -0.000764(    42)     0
      7  C        3   0.000467(     6)      2   0.000946(    25)      1  -0.000448(    43)     0
      8  C        6   0.000126(     7)      4   0.000450(    26)      2  -0.000834(    44)     0
      9  H        6   0.000361(     8)      4  -0.000276(    27)      8  -0.000130(    45)     0
     10  H        6  -0.000019(     9)      4   0.000108(    28)      8  -0.000122(    46)     0
     11  C        7   0.000019(    10)      3   0.001163(    29)      2  -0.000410(    47)     0
     12  C        8   0.000566(    11)      6   0.000458(    30)      4  -0.000395(    48)     0
     13  H        8   0.000094(    12)      6  -0.000059(    31)     12  -0.000210(    49)     0
     14  H       11   0.000098(    13)      7  -0.000129(    32)      3   0.000035(    50)     0
     15  H       11  -0.000076(    14)      7   0.000048(    33)     14  -0.000264(    51)     0
     16  H       11  -0.000079(    15)      7   0.000053(    34)     14   0.000451(    52)     0
     17  C       12  -0.000456(    16)      8   0.000271(    35)      6  -0.000546(    53)     0
     18  H       12  -0.000091(    17)      8   0.000182(    36)     17  -0.000122(    54)     0
     19  H       17   0.000078(    18)     12   0.000086(    37)      8  -0.000209(    55)     0
     20  H       17  -0.000225(    19)     12  -0.000592(    38)     19  -0.000392(    56)     0
     21  H       17  -0.000038(    20)     12   0.000132(    39)     19   0.000371(    57)     0
 -----------------------------------------------------------------------------------------------
 Internal  Forces:  Max     0.001344142 RMS     0.000482464

 GradGradGradGradGradGradGradGradGradGradGradGradGradGradGradGradGradGrad
 Berny optimization.
 Search for a saddle point.
 Step number   1 out of a maximum of   67
 All quantities printed in internal units (Hartrees-Bohrs-Radians)
 Swapping is turned off.
 Second derivative matrix not updated -- analytic derivatives used.
 ITU=  0
     Eigenvalues ---   -0.30624   0.00452   0.00740   0.01193   0.01504
     Eigenvalues ---    0.03674   0.04434   0.05513   0.05839   0.07346
     Eigenvalues ---    0.08444   0.09484   0.09783   0.10881   0.11716
     Eigenvalues ---    0.12718   0.14321   0.15249   0.16702   0.17004
     Eigenvalues ---    0.18517   0.21092   0.21536   0.22174   0.22610
     Eigenvalues ---    0.23555   0.24217   0.25337   0.27456   0.28980
     Eigenvalues ---    0.29939   0.30461   0.31256   0.31303   0.32216
     Eigenvalues ---    0.32925   0.33214   0.33691   0.34502   0.34599
     Eigenvalues ---    0.34639   0.34817   0.35543   0.35766   0.35881
     Eigenvalues ---    0.36598   0.36988   0.40812   0.42098   0.43800
     Eigenvalues ---    0.46041   0.48124   0.69564   0.79411   1.55956
     Eigenvalues ---    3.25139   6.19596
 Eigenvectors required to have negative eigenvalues:
                          R20       A7        A11       R17       D8
   1                    0.56239  -0.39728  -0.37572  -0.23681   0.20437
                          R7        D17       D12       R12       A20
   1                    0.19990  -0.17908   0.17141   0.16850  -0.15396
 RFO step:  Lambda0=7.697304774D-07 Lambda=-7.85904945D-05.
 Linear search not attempted -- option 19 set.
 Variable       Old X    -DE/DX   Delta X   Delta X   Delta X     New X
                                 (Linear)    (Quad)   (Total)
    R2        2.07097   0.00047   0.00000   0.00115   0.00115   2.07212
    R3        2.76412  -0.00054   0.00000  -0.00383  -0.00383   2.76029
    R4        2.72457   0.00084   0.00000   0.00619   0.00619   2.73075
    R5        2.07277   0.00019   0.00000   0.00070   0.00070   2.07347
    R6        2.72574   0.00134   0.00000   0.00545   0.00545   2.73119
    R7        2.36222   0.00047   0.00000   0.00087   0.00087   2.36309
    R8        2.82742   0.00013   0.00000  -0.00186  -0.00186   2.82556
    R9        2.06771   0.00036   0.00000   0.00118   0.00118   2.06889
   R10        2.06825  -0.00002   0.00000  -0.00026  -0.00026   2.06799
   R11        2.80222   0.00002   0.00000   0.00040   0.00040   2.80262
   R12        2.61028   0.00057   0.00000   0.00144   0.00144   2.61173
   R13        2.05763   0.00009   0.00000   0.00034   0.00034   2.05797
   R14        2.06420   0.00010   0.00000  -0.00007  -0.00007   2.06413
   R15        2.06377  -0.00008   0.00000  -0.00012  -0.00012   2.06366
   R16        2.06404  -0.00008   0.00000  -0.00036  -0.00036   2.06368
   R17        2.65605  -0.00046   0.00000  -0.00242  -0.00242   2.65363
   R18        2.05111  -0.00009   0.00000  -0.00026  -0.00026   2.05085
   R19        2.05268   0.00008   0.00000  -0.00006  -0.00006   2.05262
   R20        2.54243  -0.00023   0.00000   0.00858   0.00858   2.55101
   R21        2.04910  -0.00004   0.00000  -0.00025  -0.00025   2.04885
    A3        1.94645   0.00118   0.00000   0.01051   0.01051   1.95696
    A4        1.85359   0.00003   0.00000  -0.00724  -0.00724   1.84635
    A5        1.88330   0.00007   0.00000  -0.00118  -0.00118   1.88213
    A6        1.95528  -0.00123   0.00000  -0.00369  -0.00369   1.95158
    A7        2.69063   0.00095   0.00000   0.01017   0.01017   2.70080
    A8        1.91536   0.00045   0.00000   0.00161   0.00161   1.91697
    A9        1.82486  -0.00028   0.00000  -0.00247  -0.00247   1.82239
   A10        1.93111   0.00011   0.00000  -0.00111  -0.00111   1.93000
   A11        2.57452   0.00116   0.00000   0.00590   0.00590   2.58042
   A12        2.26000   0.00046   0.00000   0.00059   0.00059   2.26059
   A13        1.94590  -0.00006   0.00000   0.00030   0.00030   1.94620
   A14        1.95256  -0.00013   0.00000   0.00071   0.00071   1.95327
   A15        1.93037   0.00005   0.00000  -0.00191  -0.00191   1.92847
   A16        1.93271   0.00005   0.00000   0.00065   0.00065   1.93336
   A17        2.16736   0.00027   0.00000   0.00126   0.00126   2.16862
   A18        2.02038   0.00018   0.00000   0.00025   0.00025   2.02062
   A19        2.09114   0.00009   0.00000   0.00256   0.00256   2.09370
   A20        1.63490  -0.00059   0.00000  -0.00509  -0.00509   1.62981
   A21        2.05947   0.00013   0.00000   0.00217   0.00217   2.06164
    D4        2.10712  -0.00051   0.00000   0.00283   0.00283   2.10995
    D5       -2.13727  -0.00008   0.00000  -0.00328  -0.00328  -2.14056
    D6       -2.39415  -0.00076   0.00000  -0.01724  -0.01724  -2.41139
    D7        0.03740  -0.00045   0.00000  -0.01447  -0.01447   0.02293
    D8       -0.59526  -0.00083   0.00000   0.00323   0.00323  -0.59203
    D9       -2.08423  -0.00013   0.00000  -0.00181  -0.00181  -2.08604
   D10        2.16730  -0.00012   0.00000  -0.00025  -0.00025   2.16705
   D11       -0.42547  -0.00041   0.00000  -0.00163  -0.00163  -0.42710
   D12        2.54681  -0.00040   0.00000  -0.00194  -0.00194   2.54487
   D13        2.72025  -0.00021   0.00000  -0.00100  -0.00100   2.71925
   D14        0.08103   0.00003   0.00000   0.01320   0.01320   0.09423
   D15       -2.10790  -0.00026   0.00000   0.00008   0.00008  -2.10781
   D16        2.11786   0.00045   0.00000   0.00327   0.00327   2.12113
   D17       -0.72624  -0.00055   0.00000   0.00015   0.00015  -0.72610
   D18       -2.72809  -0.00012   0.00000  -0.00256  -0.00256  -2.73065
   D19        0.69747  -0.00021   0.00000  -0.00780  -0.00780   0.68967
   D20       -1.75187  -0.00039   0.00000   0.00663   0.00663  -1.74524
   D21        2.53867   0.00037   0.00000   0.01255   0.01255   2.55121
         Item               Value     Threshold  Converged?
 Maximum Force            0.001344     0.000450     NO 
 RMS     Force            0.000482     0.000300     NO 
 Maximum Displacement     0.017242     0.001800     NO 
 RMS     Displacement     0.005202     0.001200     NO 
 Predicted change in Energy=-3.897099D-05
 GradGradGradGradGradGradGradGradGradGradGradGradGradGradGradGradGradGrad

 ---------------------------------------------------------------------------------------------------
                            Z-MATRIX (ANGSTROMS AND DEGREES)
   CD    Cent   Atom    N1       Length/X        N2       Alpha/Y        N3        Beta/Z          J
 ---------------------------------------------------------------------------------------------------
      1      1  H 
      2      2  C        1   1.096518(     1)
      3      3  C        2   1.460681(     2)      1  112.125(    21)
      4      4  O        2   1.445053(     3)      1  105.788(    22)      3  120.891(    40)      0
      5      5  H        2   1.097232(     4)      1  107.838(    23)      3 -122.645(    41)      0
      6      6  C        4   1.445281(     5)      2  111.818(    24)      1 -138.163(    42)      0
      7      7  C        3   1.250493(     6)      2  154.744(    25)      1    1.314(    43)      0
      8      8  C        6   1.495220(     7)      4  109.834(    26)      2  -33.921(    44)      0
      9      9  H        6   1.094807(     8)      4  104.415(    27)      8 -119.521(    45)      0
     10     10  H        6   1.094334(     9)      4  110.581(    28)      8  124.163(    46)      0
     11     11  C        7   1.483083(    10)      3  147.847(    29)      2  -24.471(    47)      0
     12     12  C        8   1.382067(    11)      6  129.522(    30)      4  145.810(    48)      0
     13     13  H        8   1.089033(    12)      6  111.509(    31)     12  155.802(    49)      0
     14     14  H       11   1.092290(    13)      7  111.914(    32)      3    5.399(    50)      0
     15     15  H       11   1.092039(    14)      7  110.493(    33)     14 -120.769(    51)      0
     16     16  H       11   1.092052(    15)      7  110.773(    34)     14  121.532(    52)      0
     17     17  C       12   1.404240(    16)      8  124.253(    35)      6  -41.602(    53)      0
     18     18  H       12   1.085265(    17)      8  115.773(    36)     17 -156.455(    54)      0
     19     19  H       17   1.086197(    18)     12  119.960(    37)      8   39.515(    55)      0
     20     20  H       17   1.349938(    19)     12   93.381(    38)     19  -99.995(    56)      0
     21     21  H       17   1.084205(    20)     12  118.123(    39)     19  146.174(    57)      0
 ---------------------------------------------------------------------------------------------------
                         Z-Matrix orientation:                         
 ---------------------------------------------------------------------
 Center     Atomic      Atomic             Coordinates (Angstroms)
 Number     Number       Type             X           Y           Z
 ---------------------------------------------------------------------
      1          1           0        0.000000    0.000000    0.000000
      2          6           0        0.000000    0.000000    1.096518
      3          6           0        1.353119    0.000000    1.646660
      4          8           0       -0.713918    1.193278    1.489691
      5          1           0       -0.563425   -0.879489    1.432628
      6          6           0       -0.071628    1.862919    2.597790
      7          6           0        2.601694    0.012233    1.578503
      8          6           0        0.553893    0.853836    3.506722
      9          1           0       -0.882905    2.401729    3.097905
     10          1           0        0.655804    2.595635    2.235107
     11          6           0        3.818922   -0.287442    0.785985
     12          6           0        1.714282    0.941520    4.252321
     13          1           0       -0.182795    0.147099    3.885941
     14          1           0        3.575054   -0.625086   -0.223779
     15          1           0        4.410944   -1.064719    1.273736
     16          1           0        4.461902    0.592477    0.715995
     17          6           0        2.910614    1.512009    3.788403
     18          1           0        1.812678    0.221705    5.058538
     19          1           0        2.882512    2.411378    3.179987
     20          1           0        3.029848    0.631513    2.772115
     21          1           0        3.788064    1.444935    4.421714
 ---------------------------------------------------------------------
                    Distance matrix (angstroms):
                    1          2          3          4          5
     1  H    0.000000
     2  C    1.096518   0.000000
     3  C    2.131296   1.460681   0.000000
     4  O    2.037835   1.445053   2.391902   0.000000
     5  H    1.772955   1.097232   2.119541   2.079006   0.000000
     6  C    3.197516   2.393619   2.530813   1.445281   3.019978
     7  C    3.043128   2.645991   1.250493   3.520801   3.291569
     8  C    3.651429   2.616280   2.197187   2.406446   2.924839
     9  H    4.018064   3.248596   3.588066   2.018728   3.693454
    10  H    3.487564   2.909258   2.751334   2.097233   3.769214
    11  C    3.909548   3.842294   2.627465   4.820205   4.469188
    12  C    4.680540   3.712723   2.793987   3.686687   4.056438
    13  H    3.893018   2.799273   2.719384   2.668070   2.686542
    14  H    3.636182   3.861985   2.970904   4.963639   4.464909
    15  H    4.713009   4.541086   3.259293   5.604409   4.980352
    16  H    4.557658   4.517122   3.298742   5.267701   5.285277
    17  C    5.010973   4.243123   3.049430   4.303824   4.830931
    18  H    5.378081   4.362632   3.449819   4.479320   4.472775
    19  H    4.923001   4.297030   3.241123   4.156342   5.075190
    20  H    4.154926   3.519434   2.115863   3.996996   4.121768
    21  H    5.999069   5.243491   3.964558   5.378470   5.768279
                    6          7          8          9         10
     6  C    0.000000
     7  C    3.407438   0.000000
     8  C    1.495220   2.935953   0.000000
     9  H    1.094807   4.490068   2.151160   0.000000
    10  H    1.094334   3.300240   2.158993   1.774724   0.000000
    11  C    4.800320   1.483083   4.400608   5.889295   4.518562
    12  C    2.603060   2.966543   1.382067   3.195351   2.815248
    13  H    2.148424   3.618817   1.089033   2.488877   3.069825
    14  H    5.239247   2.145186   5.023074   6.329976   4.994115
    15  H    5.515218   2.127462   4.852209   6.585491   5.331369
    16  H    5.070312   2.130957   4.809262   6.124855   4.561439
    17  C    3.230243   2.688572   2.463062   3.957168   2.944681
    18  H    3.507060   3.574503   2.095772   3.982807   3.865962
    19  H    3.060507   2.898190   2.820490   3.766324   2.425898
    20  H    3.341542   1.411217   2.592187   4.306907   3.127657
    21  H    4.289363   3.397641   3.412693   4.948321   3.989538
                   11         12         13         14         15
    11  C    0.000000
    12  C    4.237374   0.000000
    13  H    5.080580   2.089076   0.000000
    14  H    1.092290   5.094330   5.622054   0.000000
    15  H    1.092039   4.490985   5.421675   1.770463   0.000000
    16  H    1.092052   4.491865   5.640933   1.775424   1.749277
    17  C    3.616291   1.404240   3.382554   4.594155   3.900522
    18  H    4.747521   1.085265   2.315699   5.632574   4.767662
    19  H    3.727162   2.162208   3.875750   4.613605   4.248899
    20  H    2.326334   2.004452   3.434580   3.294187   2.651371
    21  H    4.027482   2.140723   4.211787   5.090281   4.073833
                   16         17         18         19         20
    16  H    0.000000
    17  C    3.562545   0.000000
    18  H    5.100347   2.117449   0.000000
    19  H    3.445886   1.086197   3.077039   0.000000
    20  H    2.505979   1.349938   2.622437   1.831935   0.000000
    21  H    3.861748   1.084205   2.409147   1.815467   1.989403
                   21
    21  H    0.000000
 Symmetry turned off by external request.
 Stoichiometry    C8H12O
 Framework group  C1[X(C8H12O)]
 Deg. of freedom    57
 Full point group                 C1      NOp   1
 Rotational constants (GHZ):           2.0003041           1.4838281           0.9581087
 Standard basis: def2TZVP (5D, 7F)
 The following finite field(s) will be applied:
 An electric field of             -0.0081  0.0025 -0.0054
   351 basis functions,   555 primitive gaussians,   396 cartesian basis functions
    34 alpha electrons       34 beta electrons
       nuclear repulsion energy       444.7704644740 Hartrees.
 NAtoms=   21 NActive=   21 NUniq=   21 SFac= 1.00D+00 NAtFMM=   60 NAOKFM=F Big=F
 Integral buffers will be    131072 words long.
 Raffenetti 2 integral format.
 Two-electron integral symmetry is turned off.
 One-electron integrals computed using PRISM.
   1 Symmetry operations used in ECPInt.
 ECPInt:  NShTT=   10878 NPrTT=   32112 LenC2=   10632 LenP2D=   24932.
 LDataN:  DoStor=T MaxTD1= 6 Len=  172
 NBasis=   351 RedAO= T EigKep=  2.05D-05  NBF=   351
 NBsUse=   351 1.00D-06 EigRej= -1.00D+00 NBFU=   351
 The nuclear repulsion energy is now       441.9728264144 hartrees.
 Initial guess from the checkpoint file:  "checkpoint.chk"
 B after Tr=     0.038769   -0.001392    0.002479
         Rot=    0.999961   -0.000284    0.008492    0.002245 Ang=  -1.01 deg.
 Requested convergence on RMS density matrix=1.00D-08 within 128 cycles.
 Requested convergence on MAX density matrix=1.00D-06.
 Requested convergence on             energy=1.00D-06.
 No special actions if energy rises.
 SCF Done:  E(RB3LYP) =  -387.298937520     A.U. after   10 cycles
            NFock= 10  Conv=0.62D-08     -V/T= 2.0054
   1 Symmetry operations used in ECPInt.
 ECPInt:  NShTT=   10878 NPrTT=   32112 LenC2=   10632 LenP2D=   24932.
 LDataN:  DoStor=T MaxTD1= 7 Len=  274
 Calling FoFJK, ICntrl=      2127 FMM=F ISym2X=0 I1Cent= 0 IOpClX= 0 NMat=1 NMatS=1 NMatT=0.
 -------------------------------------------------------------------
 Center     Atomic                   Forces (Hartrees/Bohr)
 Number     Number              X              Y              Z
 -------------------------------------------------------------------
      1        1           0.002187893   -0.000577516   -0.000003241
      2        6          -0.002194908    0.000951339    0.000001949
      3        6           0.000008538   -0.000381821    0.000005097
      4        8          -0.000004504    0.000010830   -0.000009087
      5        1           0.000000911   -0.000001251   -0.000003339
      6        6           0.000005865    0.000003900    0.000007885
      7        6           0.000010621   -0.000013250   -0.000010766
      8        6          -0.000004930   -0.000000104    0.000009717
      9        1          -0.000000794   -0.000000031    0.000000651
     10        1           0.000000340    0.000000637   -0.000000468
     11        6          -0.000001098   -0.000004418   -0.000008305
     12        6          -0.000007229   -0.000005415   -0.000000646
     13        1          -0.000000412    0.000001239    0.000001847
     14        1           0.000002301   -0.000000794   -0.000002566
     15        1          -0.000000250   -0.000001195   -0.000000551
     16        1          -0.000001218    0.000001503    0.000000398
     17        6           0.000005776    0.000009911    0.000005445
     18        1          -0.000000601    0.000000366    0.000000711
     19        1          -0.000001971    0.000000246   -0.000002674
     20        1          -0.000005006    0.000009403    0.000007088
     21        1           0.000000676   -0.000003579    0.000000854
 -------------------------------------------------------------------
 Cartesian Forces:  Max     0.002194908 RMS     0.000417673
 -----------------------------------------------------------------------------------------------
                       Internal Coordinate Forces (Hartree/Bohr or radian)
  Cent   Atom   N1       Length/X         N2         Alpha/Y        N3         Beta/Z          J
 -----------------------------------------------------------------------------------------------
      1  H 
      2  C        1   0.000003(     1)
      3  C        2   0.000011(     2)      1  -0.000133(    21)
      4  O        2   0.000035(     3)      1  -0.000084(    22)      3   0.000062(    40)     0
      5  H        2  -0.000000(     4)      1  -0.000007(    23)      3   0.000003(    41)     0
      6  C        4   0.000027(     5)      2   0.000152(    24)      1  -0.000084(    42)     0
      7  C        3   0.000011(     6)      2  -0.000069(    25)      1  -0.000020(    43)     0
      8  C        6  -0.000000(     7)      4   0.000068(    26)      2  -0.000037(    44)     0
      9  H        6   0.000001(     8)      4  -0.000000(    27)      8   0.000001(    45)     0
     10  H        6   0.000001(     9)      4  -0.000000(    28)      8   0.000000(    46)     0
     11  C        7   0.000007(    10)      3  -0.000021(    29)      2   0.000002(    47)     0
     12  C        8  -0.000001(    11)      6  -0.000013(    30)      4   0.000069(    48)     0
     13  H        8   0.000000(    12)      6   0.000000(    31)     12  -0.000004(    49)     0
     14  H       11   0.000002(    13)      7   0.000006(    32)      3   0.000001(    50)     0
     15  H       11   0.000000(    14)      7   0.000000(    33)     14   0.000002(    51)     0
     16  H       11   0.000000(    15)      7  -0.000004(    34)     14  -0.000001(    52)     0
     17  C       12   0.000003(    16)      8   0.000012(    35)      6   0.000039(    53)     0
     18  H       12   0.000000(    17)      8  -0.000000(    36)     17  -0.000002(    54)     0
     19  H       17   0.000002(    18)     12  -0.000004(    37)      8   0.000012(    55)     0
     20  H       17  -0.000012(    19)     12  -0.000005(    38)     19   0.000011(    56)     0
     21  H       17   0.000001(    20)     12  -0.000004(    39)     19   0.000005(    57)     0
 -----------------------------------------------------------------------------------------------
 Internal  Forces:  Max     0.000151947 RMS     0.000037389

 GradGradGradGradGradGradGradGradGradGradGradGradGradGradGradGradGradGrad
 Berny optimization.
 Search for a saddle point.
 Step number   2 out of a maximum of   67
 All quantities printed in internal units (Hartrees-Bohrs-Radians)
 Swapping is turned off.
 Update second derivatives using D2CorN and points    1    2
 ITU=  0  0
     Eigenvalues ---   -0.30620   0.00452   0.00740   0.01193   0.01498
     Eigenvalues ---    0.03673   0.04433   0.05513   0.05847   0.07347
     Eigenvalues ---    0.08442   0.09484   0.09787   0.10880   0.11716
     Eigenvalues ---    0.12718   0.14320   0.15249   0.16700   0.17004
     Eigenvalues ---    0.18517   0.21092   0.21535   0.22174   0.22610
     Eigenvalues ---    0.23555   0.24217   0.25337   0.27456   0.28981
     Eigenvalues ---    0.29939   0.30462   0.31256   0.31304   0.32216
     Eigenvalues ---    0.32925   0.33214   0.33690   0.34502   0.34599
     Eigenvalues ---    0.34639   0.34817   0.35543   0.35766   0.35881
     Eigenvalues ---    0.36598   0.36988   0.40812   0.42100   0.43801
     Eigenvalues ---    0.46041   0.48123   0.69564   0.79411   1.55959
     Eigenvalues ---    3.25139   6.19599
 Eigenvectors required to have negative eigenvalues:
                          R20       A7        A11       R17       D8
   1                    0.56205  -0.39775  -0.37595  -0.23675   0.20420
                          R7        D17       D12       R12       A20
   1                    0.19990  -0.17911   0.17153   0.16849  -0.15378
 RFO step:  Lambda0=6.597583896D-09 Lambda=-2.33314879D-08.
 Linear search not attempted -- option 19 set.
 Variable       Old X    -DE/DX   Delta X   Delta X   Delta X     New X
                                 (Linear)    (Quad)   (Total)
    R2        2.07212   0.00000   0.00000   0.00001   0.00001   2.07213
    R3        2.76029   0.00001   0.00000   0.00003   0.00003   2.76031
    R4        2.73075   0.00003   0.00000   0.00005   0.00005   2.73080
    R5        2.07347  -0.00000   0.00000  -0.00001  -0.00001   2.07346
    R6        2.73119   0.00003   0.00000   0.00005   0.00005   2.73124
    R7        2.36309   0.00001   0.00000   0.00002   0.00002   2.36311
    R8        2.82556  -0.00000   0.00000  -0.00000  -0.00000   2.82555
    R9        2.06889   0.00000   0.00000   0.00000   0.00000   2.06889
   R10        2.06799   0.00000   0.00000  -0.00000  -0.00000   2.06799
   R11        2.80262   0.00001   0.00000   0.00001   0.00001   2.80263
   R12        2.61173  -0.00000   0.00000   0.00001   0.00001   2.61174
   R13        2.05797   0.00000   0.00000  -0.00000  -0.00000   2.05797
   R14        2.06413   0.00000   0.00000   0.00001   0.00001   2.06414
   R15        2.06366   0.00000   0.00000   0.00000   0.00000   2.06366
   R16        2.06368   0.00000   0.00000   0.00000   0.00000   2.06368
   R17        2.65363   0.00000   0.00000   0.00000   0.00000   2.65363
   R18        2.05085   0.00000   0.00000   0.00000   0.00000   2.05085
   R19        2.05262   0.00000   0.00000   0.00000   0.00000   2.05262
   R20        2.55101  -0.00001   0.00000   0.00007   0.00007   2.55108
   R21        2.04885   0.00000   0.00000   0.00000   0.00000   2.04885
    A3        1.95696  -0.00013   0.00000   0.00001   0.00001   1.95696
    A4        1.84635  -0.00008   0.00000  -0.00006  -0.00006   1.84629
    A5        1.88213  -0.00001   0.00000   0.00002   0.00002   1.88214
    A6        1.95158   0.00015   0.00000  -0.00000  -0.00000   1.95158
    A7        2.70080  -0.00007   0.00000  -0.00009  -0.00009   2.70070
    A8        1.91697   0.00007   0.00000   0.00003   0.00003   1.91700
    A9        1.82239  -0.00000   0.00000  -0.00000  -0.00000   1.82239
   A10        1.93000  -0.00000   0.00000  -0.00003  -0.00003   1.92997
   A11        2.58042  -0.00002   0.00000  -0.00010  -0.00010   2.58032
   A12        2.26059  -0.00001   0.00000  -0.00004  -0.00004   2.26055
   A13        1.94620   0.00000   0.00000   0.00003   0.00003   1.94623
   A14        1.95327   0.00001   0.00000   0.00002   0.00002   1.95329
   A15        1.92847   0.00000   0.00000   0.00000   0.00000   1.92847
   A16        1.93336  -0.00000   0.00000  -0.00001  -0.00001   1.93335
   A17        2.16862   0.00001   0.00000   0.00001   0.00001   2.16862
   A18        2.02062  -0.00000   0.00000   0.00000   0.00000   2.02063
   A19        2.09370  -0.00000   0.00000  -0.00000  -0.00000   2.09369
   A20        1.62981  -0.00001   0.00000  -0.00002  -0.00002   1.62979
   A21        2.06164  -0.00000   0.00000  -0.00001  -0.00001   2.06163
    D4        2.10995   0.00006   0.00000  -0.00011  -0.00011   2.10985
    D5       -2.14056   0.00000   0.00000  -0.00007  -0.00007  -2.14062
    D6       -2.41139  -0.00008   0.00000  -0.00018  -0.00018  -2.41158
    D7        0.02293  -0.00002   0.00000  -0.00009  -0.00009   0.02284
    D8       -0.59203  -0.00004   0.00000   0.00024   0.00024  -0.59179
    D9       -2.08604   0.00000   0.00000  -0.00001  -0.00001  -2.08605
   D10        2.16705   0.00000   0.00000  -0.00001  -0.00001   2.16704
   D11       -0.42710   0.00000   0.00000   0.00018   0.00018  -0.42692
   D12        2.54487   0.00007   0.00000  -0.00010  -0.00010   2.54477
   D13        2.71925  -0.00000   0.00000  -0.00003  -0.00003   2.71922
   D14        0.09423   0.00000   0.00000   0.00010   0.00010   0.09434
   D15       -2.10781   0.00000   0.00000   0.00000   0.00000  -2.10781
   D16        2.12113  -0.00000   0.00000  -0.00000  -0.00000   2.12113
   D17       -0.72610   0.00004   0.00000   0.00006   0.00006  -0.72604
   D18       -2.73065  -0.00000   0.00000  -0.00006  -0.00006  -2.73071
   D19        0.68967   0.00001   0.00000  -0.00006  -0.00006   0.68961
   D20       -1.74524   0.00001   0.00000   0.00006   0.00006  -1.74519
   D21        2.55121   0.00001   0.00000   0.00009   0.00009   2.55130
         Item               Value     Threshold  Converged?
 Maximum Force            0.000152     0.000450     YES
 RMS     Force            0.000037     0.000300     YES
 Maximum Displacement     0.000239     0.001800     YES
 RMS     Displacement     0.000064     0.001200     YES
 Predicted change in Energy=-8.366952D-09
 Optimization completed.
    -- Stationary point found.
                       ----------------------------
                       !   Optimized Parameters   !
                       ! (Angstroms and Degrees)  !
 ----------------------                            ----------------------
 !      Name          Value   Derivative information (Atomic Units)     !
 ------------------------------------------------------------------------
 !       R2          1.0965   -DE/DX =    0.0                           !
 !       R3          1.4607   -DE/DX =    0.0                           !
 !       R4          1.4451   -DE/DX =    0.0                           !
 !       R5          1.0972   -DE/DX =    0.0                           !
 !       R6          1.4453   -DE/DX =    0.0                           !
 !       R7          1.2505   -DE/DX =    0.0                           !
 !       R8          1.4952   -DE/DX =    0.0                           !
 !       R9          1.0948   -DE/DX =    0.0                           !
 !       R10         1.0943   -DE/DX =    0.0                           !
 !       R11         1.4831   -DE/DX =    0.0                           !
 !       R12         1.3821   -DE/DX =    0.0                           !
 !       R13         1.089    -DE/DX =    0.0                           !
 !       R14         1.0923   -DE/DX =    0.0                           !
 !       R15         1.092    -DE/DX =    0.0                           !
 !       R16         1.0921   -DE/DX =    0.0                           !
 !       R17         1.4042   -DE/DX =    0.0                           !
 !       R18         1.0853   -DE/DX =    0.0                           !
 !       R19         1.0862   -DE/DX =    0.0                           !
 !       R20         1.3499   -DE/DX =    0.0                           !
 !       R21         1.0842   -DE/DX =    0.0                           !
 !       A3        112.1254   -DE/DX =   -0.0001                        !
 !       A4        105.7882   -DE/DX =   -0.0001                        !
 !       A5        107.8379   -DE/DX =    0.0                           !
 !       A6        111.8176   -DE/DX =    0.0002                        !
 !       A7        154.7442   -DE/DX =   -0.0001                        !
 !       A8        109.8342   -DE/DX =    0.0001                        !
 !       A9        104.4153   -DE/DX =    0.0                           !
 !       A10       110.581    -DE/DX =    0.0                           !
 !       A11       147.8472   -DE/DX =    0.0                           !
 !       A12       129.5221   -DE/DX =    0.0                           !
 !       A13       111.509    -DE/DX =    0.0                           !
 !       A14       111.9142   -DE/DX =    0.0                           !
 !       A15       110.493    -DE/DX =    0.0                           !
 !       A16       110.7735   -DE/DX =    0.0                           !
 !       A17       124.2526   -DE/DX =    0.0                           !
 !       A18       115.7732   -DE/DX =    0.0                           !
 !       A19       119.9599   -DE/DX =    0.0                           !
 !       A20        93.3812   -DE/DX =    0.0                           !
 !       A21       118.1233   -DE/DX =    0.0                           !
 !       D4        120.8914   -DE/DX =    0.0001                        !
 !       D5       -122.6448   -DE/DX =    0.0                           !
 !       D6       -138.1626   -DE/DX =   -0.0001                        !
 !       D7          1.3138   -DE/DX =    0.0                           !
 !       D8        -33.9206   -DE/DX =    0.0                           !
 !       D9       -119.5212   -DE/DX =    0.0                           !
 !       D10       124.1627   -DE/DX =    0.0                           !
 !       D11       -24.471    -DE/DX =    0.0                           !
 !       D12       145.8101   -DE/DX =    0.0001                        !
 !       D13       155.8016   -DE/DX =    0.0                           !
 !       D14         5.3991   -DE/DX =    0.0                           !
 !       D15      -120.7688   -DE/DX =    0.0                           !
 !       D16       121.532    -DE/DX =    0.0                           !
 !       D17       -41.6023   -DE/DX =    0.0                           !
 !       D18      -156.4547   -DE/DX =    0.0                           !
 !       D19        39.515    -DE/DX =    0.0                           !
 !       D20       -99.995    -DE/DX =    0.0                           !
 !       D21       146.1737   -DE/DX =    0.0                           !
 ------------------------------------------------------------------------
 GradGradGradGradGradGradGradGradGradGradGradGradGradGradGradGradGradGrad

 ---------------------------------------------------------------------------------------------------
                            Z-MATRIX (ANGSTROMS AND DEGREES)
   CD    Cent   Atom    N1       Length/X        N2       Alpha/Y        N3        Beta/Z          J
 ---------------------------------------------------------------------------------------------------
      1      1  H 
      2      2  C        1   1.096518(     1)
      3      3  C        2   1.460681(     2)      1  112.125(    21)
      4      4  O        2   1.445053(     3)      1  105.788(    22)      3  120.891(    40)      0
      5      5  H        2   1.097232(     4)      1  107.838(    23)      3 -122.645(    41)      0
      6      6  C        4   1.445281(     5)      2  111.818(    24)      1 -138.163(    42)      0
      7      7  C        3   1.250493(     6)      2  154.744(    25)      1    1.314(    43)      0
      8      8  C        6   1.495220(     7)      4  109.834(    26)      2  -33.921(    44)      0
      9      9  H        6   1.094807(     8)      4  104.415(    27)      8 -119.521(    45)      0
     10     10  H        6   1.094334(     9)      4  110.581(    28)      8  124.163(    46)      0
     11     11  C        7   1.483083(    10)      3  147.847(    29)      2  -24.471(    47)      0
     12     12  C        8   1.382067(    11)      6  129.522(    30)      4  145.810(    48)      0
     13     13  H        8   1.089033(    12)      6  111.509(    31)     12  155.802(    49)      0
     14     14  H       11   1.092290(    13)      7  111.914(    32)      3    5.399(    50)      0
     15     15  H       11   1.092039(    14)      7  110.493(    33)     14 -120.769(    51)      0
     16     16  H       11   1.092052(    15)      7  110.773(    34)     14  121.532(    52)      0
     17     17  C       12   1.404240(    16)      8  124.253(    35)      6  -41.602(    53)      0
     18     18  H       12   1.085265(    17)      8  115.773(    36)     17 -156.455(    54)      0
     19     19  H       17   1.086197(    18)     12  119.960(    37)      8   39.515(    55)      0
     20     20  H       17   1.349938(    19)     12   93.381(    38)     19  -99.995(    56)      0
     21     21  H       17   1.084205(    20)     12  118.123(    39)     19  146.174(    57)      0
 ---------------------------------------------------------------------------------------------------
                         Z-Matrix orientation:                         
 ---------------------------------------------------------------------
 Center     Atomic      Atomic             Coordinates (Angstroms)
 Number     Number       Type             X           Y           Z
 ---------------------------------------------------------------------
      1          1           0        0.000000    0.000000    0.000000
      2          6           0        0.000000    0.000000    1.096518
      3          6           0        1.353119    0.000000    1.646660
      4          8           0       -0.713918    1.193278    1.489691
      5          1           0       -0.563425   -0.879489    1.432628
      6          6           0       -0.071628    1.862919    2.597790
      7          6           0        2.601694    0.012233    1.578503
      8          6           0        0.553893    0.853836    3.506722
      9          1           0       -0.882905    2.401729    3.097905
     10          1           0        0.655804    2.595635    2.235107
     11          6           0        3.818922   -0.287442    0.785985
     12          6           0        1.714282    0.941520    4.252321
     13          1           0       -0.182795    0.147099    3.885941
     14          1           0        3.575054   -0.625086   -0.223779
     15          1           0        4.410944   -1.064719    1.273736
     16          1           0        4.461902    0.592477    0.715995
     17          6           0        2.910614    1.512009    3.788403
     18          1           0        1.812678    0.221705    5.058538
     19          1           0        2.882512    2.411378    3.179987
     20          1           0        3.029848    0.631513    2.772115
     21          1           0        3.788064    1.444935    4.421714
 ---------------------------------------------------------------------
                    Distance matrix (angstroms):
                    1          2          3          4          5
     1  H    0.000000
     2  C    1.096518   0.000000
     3  C    2.131296   1.460681   0.000000
     4  O    2.037835   1.445053   2.391902   0.000000
     5  H    1.772955   1.097232   2.119541   2.079006   0.000000
     6  C    3.197516   2.393619   2.530813   1.445281   3.019978
     7  C    3.043128   2.645991   1.250493   3.520801   3.291569
     8  C    3.651429   2.616280   2.197187   2.406446   2.924839
     9  H    4.018064   3.248596   3.588066   2.018728   3.693454
    10  H    3.487564   2.909258   2.751334   2.097233   3.769214
    11  C    3.909548   3.842294   2.627465   4.820205   4.469188
    12  C    4.680540   3.712723   2.793987   3.686687   4.056438
    13  H    3.893018   2.799273   2.719384   2.668070   2.686542
    14  H    3.636182   3.861985   2.970904   4.963639   4.464909
    15  H    4.713009   4.541086   3.259293   5.604409   4.980352
    16  H    4.557658   4.517122   3.298742   5.267701   5.285277
    17  C    5.010973   4.243123   3.049430   4.303824   4.830931
    18  H    5.378081   4.362632   3.449819   4.479320   4.472775
    19  H    4.923001   4.297030   3.241123   4.156342   5.075190
    20  H    4.154926   3.519434   2.115863   3.996996   4.121768
    21  H    5.999069   5.243491   3.964558   5.378470   5.768279
                    6          7          8          9         10
     6  C    0.000000
     7  C    3.407438   0.000000
     8  C    1.495220   2.935953   0.000000
     9  H    1.094807   4.490068   2.151160   0.000000
    10  H    1.094334   3.300240   2.158993   1.774724   0.000000
    11  C    4.800320   1.483083   4.400608   5.889295   4.518562
    12  C    2.603060   2.966543   1.382067   3.195351   2.815248
    13  H    2.148424   3.618817   1.089033   2.488877   3.069825
    14  H    5.239247   2.145186   5.023074   6.329976   4.994115
    15  H    5.515218   2.127462   4.852209   6.585491   5.331369
    16  H    5.070312   2.130957   4.809262   6.124855   4.561439
    17  C    3.230243   2.688572   2.463062   3.957168   2.944681
    18  H    3.507060   3.574503   2.095772   3.982807   3.865962
    19  H    3.060507   2.898190   2.820490   3.766324   2.425898
    20  H    3.341542   1.411217   2.592187   4.306907   3.127657
    21  H    4.289363   3.397641   3.412693   4.948321   3.989538
                   11         12         13         14         15
    11  C    0.000000
    12  C    4.237374   0.000000
    13  H    5.080580   2.089076   0.000000
    14  H    1.092290   5.094330   5.622054   0.000000
    15  H    1.092039   4.490985   5.421675   1.770463   0.000000
    16  H    1.092052   4.491865   5.640933   1.775424   1.749277
    17  C    3.616291   1.404240   3.382554   4.594155   3.900522
    18  H    4.747521   1.085265   2.315699   5.632574   4.767662
    19  H    3.727162   2.162208   3.875750   4.613605   4.248899
    20  H    2.326334   2.004452   3.434580   3.294187   2.651371
    21  H    4.027482   2.140723   4.211787   5.090281   4.073833
                   16         17         18         19         20
    16  H    0.000000
    17  C    3.562545   0.000000
    18  H    5.100347   2.117449   0.000000
    19  H    3.445886   1.086197   3.077039   0.000000
    20  H    2.505979   1.349938   2.622437   1.831935   0.000000
    21  H    3.861748   1.084205   2.409147   1.815467   1.989403
                   21
    21  H    0.000000
 Symmetry turned off by external request.
 Stoichiometry    C8H12O
 Framework group  C1[X(C8H12O)]
 Deg. of freedom    57
 Full point group                 C1      NOp   1
 Rotational constants (GHZ):           2.0003041           1.4838281           0.9581087
 1\1\GINC-BHC0009\FTS\RB3LYP\def2TZVP\C8H12O1\DHANAWAY\11-Jun-2022\1\\#
  Opt=(TS, CalcFC, noeigentest, Z-matrix, MaxStep=10) geom=allcheckpoin
 t guess=read Field=read NoSymm B3LYP/Def2TZVP freq=noraman pop=none\\t
 s_zmat_initalOpt\\0,1\H\C,1,R2\C,2,R3,1,A3\O,2,R4,1,A4,3,D4,0\H,2,R5,1
 ,A5,3,D5,0\C,4,R6,2,A6,1,D6,0\C,3,R7,2,A7,1,D7,0\C,6,R8,4,A8,2,D8,0\H,
 6,R9,4,A9,8,D9,0\H,6,R10,4,A10,8,D10,0\C,7,R11,3,A11,2,D11,0\C,8,R12,6
 ,A12,4,D12,0\H,8,R13,6,A13,12,D13,0\H,11,R14,7,A14,3,D14,0\H,11,R15,7,
 A15,14,D15,0\H,11,R16,7,A16,14,D16,0\C,12,R17,8,A17,6,D17,0\H,12,R18,8
 ,A18,17,D18,0\H,17,R19,12,A19,8,D19,0\H,17,R20,12,A20,19,D20,0\H,17,R2
 1,12,A21,19,D21,0\\R2=1.09651795\R3=1.4606807\R4=1.44505274\R5=1.09723
 193\R6=1.44528128\R7=1.25049345\R8=1.49521961\R9=1.09480737\R10=1.0943
 3438\R11=1.48308276\R12=1.38206673\R13=1.08903269\R14=1.09229021\R15=1
 .09203939\R16=1.09205199\R17=1.40423977\R18=1.08526549\R19=1.08619723\
 R20=1.34993776\R21=1.0842046\A3=112.12535458\A4=105.78819235\A5=107.83
 790083\A6=111.81756163\A7=154.74424469\A8=109.83420862\A9=104.41525522
 \A10=110.58104349\A11=147.84721339\A12=129.5220854\A13=111.50896386\A1
 4=111.91415777\A15=110.49298922\A16=110.77349421\A17=124.25259528\A18=
 115.77321319\A19=119.95988896\A20=93.38123872\A21=118.12325425\D4=120.
 89136094\D5=-122.64478163\D6=-138.16263798\D7=1.31378633\D8=-33.920573
 21\D9=-119.52116982\D10=124.16270059\D11=-24.47103372\D12=145.81013228
 \D13=155.80159183\D14=5.39907194\D15=-120.76882784\D16=121.53201461\D1
 7=-41.60226549\D18=-156.45466223\D19=39.51500502\D20=-99.99500187\D21=
 146.17372425\\Version=ES64L-G16RevA.03\HF=-387.2989375\RMSD=6.157e-09\
 RMSF=4.177e-04\Dipole=1.7230037,-0.41077,0.5781606\PG=C01 [X(C8H12O1)]
 \\@


 YOU CANNOT THROW TO THE GROUND THE LETTERS OF
 THE GREEK ALPHABET AND PICK UP THE ILIAD.
        - RUFUS CHOATE, 1799-1859
 Job cpu time:       0 days  2 hours 56 minutes 39.8 seconds.
 Elapsed time:       0 days  0 hours 15 minutes 13.2 seconds.
 File lengths (MBytes):  RWF=    203 Int=      0 D2E=      0 Chk=     32 Scr=      1
 Normal termination of Gaussian 16 at Sat Jun 11 01:13:57 2022.
 Link1:  Proceeding to internal job step number  2.
 --------------------------------------------------------------------
 #N Geom=AllCheck Guess=TCheck SCRF=Check GenChk RB3LYP/def2TZVP Freq
 --------------------------------------------------------------------
 1/5=1,8=10,10=4,11=1,29=7,30=1,38=1,40=1/1,3;
 2/12=2,15=1,40=1/2;
 3/5=44,7=101,11=2,14=-4,25=1,30=1,70=2,71=2,74=-5,116=1,140=1/1,2,3;
 4/5=101/1;
 5/5=2,38=6,98=1/2;
 8/6=4,10=90,11=11/1;
 11/6=1,8=1,9=11,15=111,16=1,31=1/1,2,10;
 10/6=1,31=1/2;
 7/8=1,10=1,25=1,30=1/1,2,3,16;
 1/5=1,8=10,10=4,11=1,30=1/3;
 99//99;
 Structure from the checkpoint file:  "checkpoint.chk"
 -----------------
 ts_zmat_initalOpt
 -----------------
 Charge =  0 Multiplicity = 1
 Z-Matrix found in chk file.
 H
 C,1,R2
 C,2,R3,1,A3
 O,2,R4,1,A4,3,D4,0
 H,2,R5,1,A5,3,D5,0
 C,4,R6,2,A6,1,D6,0
 C,3,R7,2,A7,1,D7,0
 C,6,R8,4,A8,2,D8,0
 H,6,R9,4,A9,8,D9,0
 H,6,R10,4,A10,8,D10,0
 C,7,R11,3,A11,2,D11,0
 C,8,R12,6,A12,4,D12,0
 H,8,R13,6,A13,12,D13,0
 H,11,R14,7,A14,3,D14,0
 H,11,R15,7,A15,14,D15,0
 H,11,R16,7,A16,14,D16,0
 C,12,R17,8,A17,6,D17,0
 H,12,R18,8,A18,17,D18,0
 H,17,R19,12,A19,8,D19,0
 H,17,R20,12,A20,19,D20,0
 H,17,R21,12,A21,19,D21,0
      Variables:
 R2=1.09651795
 R3=1.4606807
 R4=1.44505274
 R5=1.09723193
 R6=1.44528128
 R7=1.25049345
 R8=1.49521961
 R9=1.09480737
 R10=1.09433438
 R11=1.48308276
 R12=1.38206673
 R13=1.08903269
 R14=1.09229021
 R15=1.09203939
 R16=1.09205199
 R17=1.40423977
 R18=1.08526549
 R19=1.08619723
 R20=1.34993776
 R21=1.0842046
 A3=112.12535458
 A4=105.78819235
 A5=107.83790083
 A6=111.81756163
 A7=154.74424469
 A8=109.83420862
 A9=104.41525522
 A10=110.58104349
 A11=147.84721339
 A12=129.5220854
 A13=111.50896386
 A14=111.91415777
 A15=110.49298922
 A16=110.77349421
 A17=124.25259528
 A18=115.77321319
 A19=119.95988896
 A20=93.38123872
 A21=118.12325425
 D4=120.89136094
 D5=-122.64478163
 D6=-138.16263798
 D7=1.31378633
 D8=-33.92057321
 D9=-119.52116982
 D10=124.16270059
 D11=-24.47103372
 D12=145.81013228
 D13=155.80159183
 D14=5.39907194
 D15=-120.76882784
 D16=121.53201461
 D17=-41.60226549
 D18=-156.45466223
 D19=39.51500502
 D20=-99.99500187
 D21=146.17372425
 Recover connectivity data from disk.

 GradGradGradGradGradGradGradGradGradGradGradGradGradGradGradGradGradGrad
 Berny optimization.
 Initialization pass.
                       ----------------------------
                       !    Initial Parameters    !
                       ! (Angstroms and Degrees)  !
 ----------------------                            ----------------------
 !      Name          Value   Derivative information (Atomic Units)     !
 ------------------------------------------------------------------------
 !       R2          1.0965   calculate D2E/DX2 analytically            !
 !       R3          1.4607   calculate D2E/DX2 analytically            !
 !       R4          1.4451   calculate D2E/DX2 analytically            !
 !       R5          1.0972   calculate D2E/DX2 analytically            !
 !       R6          1.4453   calculate D2E/DX2 analytically            !
 !       R7          1.2505   calculate D2E/DX2 analytically            !
 !       R8          1.4952   calculate D2E/DX2 analytically            !
 !       R9          1.0948   calculate D2E/DX2 analytically            !
 !       R10         1.0943   calculate D2E/DX2 analytically            !
 !       R11         1.4831   calculate D2E/DX2 analytically            !
 !       R12         1.3821   calculate D2E/DX2 analytically            !
 !       R13         1.089    calculate D2E/DX2 analytically            !
 !       R14         1.0923   calculate D2E/DX2 analytically            !
 !       R15         1.092    calculate D2E/DX2 analytically            !
 !       R16         1.0921   calculate D2E/DX2 analytically            !
 !       R17         1.4042   calculate D2E/DX2 analytically            !
 !       R18         1.0853   calculate D2E/DX2 analytically            !
 !       R19         1.0862   calculate D2E/DX2 analytically            !
 !       R20         1.3499   calculate D2E/DX2 analytically            !
 !       R21         1.0842   calculate D2E/DX2 analytically            !
 !       A3        112.1254   calculate D2E/DX2 analytically            !
 !       A4        105.7882   calculate D2E/DX2 analytically            !
 !       A5        107.8379   calculate D2E/DX2 analytically            !
 !       A6        111.8176   calculate D2E/DX2 analytically            !
 !       A7        154.7442   calculate D2E/DX2 analytically            !
 !       A8        109.8342   calculate D2E/DX2 analytically            !
 !       A9        104.4153   calculate D2E/DX2 analytically            !
 !       A10       110.581    calculate D2E/DX2 analytically            !
 !       A11       147.8472   calculate D2E/DX2 analytically            !
 !       A12       129.5221   calculate D2E/DX2 analytically            !
 !       A13       111.509    calculate D2E/DX2 analytically            !
 !       A14       111.9142   calculate D2E/DX2 analytically            !
 !       A15       110.493    calculate D2E/DX2 analytically            !
 !       A16       110.7735   calculate D2E/DX2 analytically            !
 !       A17       124.2526   calculate D2E/DX2 analytically            !
 !       A18       115.7732   calculate D2E/DX2 analytically            !
 !       A19       119.9599   calculate D2E/DX2 analytically            !
 !       A20        93.3812   calculate D2E/DX2 analytically            !
 !       A21       118.1233   calculate D2E/DX2 analytically            !
 !       D4        120.8914   calculate D2E/DX2 analytically            !
 !       D5       -122.6448   calculate D2E/DX2 analytically            !
 !       D6       -138.1626   calculate D2E/DX2 analytically            !
 !       D7          1.3138   calculate D2E/DX2 analytically            !
 !       D8        -33.9206   calculate D2E/DX2 analytically            !
 !       D9       -119.5212   calculate D2E/DX2 analytically            !
 !       D10       124.1627   calculate D2E/DX2 analytically            !
 !       D11       -24.471    calculate D2E/DX2 analytically            !
 !       D12       145.8101   calculate D2E/DX2 analytically            !
 !       D13       155.8016   calculate D2E/DX2 analytically            !
 !       D14         5.3991   calculate D2E/DX2 analytically            !
 !       D15      -120.7688   calculate D2E/DX2 analytically            !
 !       D16       121.532    calculate D2E/DX2 analytically            !
 !       D17       -41.6023   calculate D2E/DX2 analytically            !
 !       D18      -156.4547   calculate D2E/DX2 analytically            !
 !       D19        39.515    calculate D2E/DX2 analytically            !
 !       D20       -99.995    calculate D2E/DX2 analytically            !
 !       D21       146.1737   calculate D2E/DX2 analytically            !
 ------------------------------------------------------------------------
 Trust Radius=1.00D-01 FncErr=1.00D-07 GrdErr=1.00D-07 EigMax=2.50D+02 EigMin=1.00D-04
 Number of steps in this run=      2 maximum allowed number of steps=      2.
 Search for a saddle point of order  1.
 GradGradGradGradGradGradGradGradGradGradGradGradGradGradGradGradGradGrad

                          Input orientation:                          
 ---------------------------------------------------------------------
 Center     Atomic      Atomic             Coordinates (Angstroms)
 Number     Number       Type             X           Y           Z
 ---------------------------------------------------------------------
      1          1           0        0.000000    0.000000    0.000000
      2          6           0        0.000000    0.000000    1.096518
      3          6           0        1.353119    0.000000    1.646660
      4          8           0       -0.713918    1.193278    1.489691
      5          1           0       -0.563425   -0.879489    1.432628
      6          6           0       -0.071628    1.862919    2.597790
      7          6           0        2.601694    0.012233    1.578503
      8          6           0        0.553893    0.853836    3.506722
      9          1           0       -0.882905    2.401729    3.097905
     10          1           0        0.655804    2.595635    2.235107
     11          6           0        3.818922   -0.287442    0.785985
     12          6           0        1.714282    0.941520    4.252321
     13          1           0       -0.182795    0.147099    3.885941
     14          1           0        3.575054   -0.625086   -0.223779
     15          1           0        4.410944   -1.064719    1.273736
     16          1           0        4.461902    0.592477    0.715995
     17          6           0        2.910614    1.512009    3.788403
     18          1           0        1.812678    0.221705    5.058538
     19          1           0        2.882512    2.411378    3.179987
     20          1           0        3.029848    0.631513    2.772115
     21          1           0        3.788064    1.444935    4.421714
 ---------------------------------------------------------------------
                    Distance matrix (angstroms):
                    1          2          3          4          5
     1  H    0.000000
     2  C    1.096518   0.000000
     3  C    2.131296   1.460681   0.000000
     4  O    2.037835   1.445053   2.391902   0.000000
     5  H    1.772955   1.097232   2.119541   2.079006   0.000000
     6  C    3.197516   2.393619   2.530813   1.445281   3.019978
     7  C    3.043128   2.645991   1.250493   3.520801   3.291569
     8  C    3.651429   2.616280   2.197187   2.406446   2.924839
     9  H    4.018064   3.248596   3.588066   2.018728   3.693454
    10  H    3.487564   2.909258   2.751334   2.097233   3.769214
    11  C    3.909548   3.842294   2.627465   4.820205   4.469188
    12  C    4.680540   3.712723   2.793987   3.686687   4.056438
    13  H    3.893018   2.799273   2.719384   2.668070   2.686542
    14  H    3.636182   3.861985   2.970904   4.963639   4.464909
    15  H    4.713009   4.541086   3.259293   5.604409   4.980352
    16  H    4.557658   4.517122   3.298742   5.267701   5.285277
    17  C    5.010973   4.243123   3.049430   4.303824   4.830931
    18  H    5.378081   4.362632   3.449819   4.479320   4.472775
    19  H    4.923001   4.297030   3.241123   4.156342   5.075190
    20  H    4.154926   3.519434   2.115863   3.996996   4.121768
    21  H    5.999069   5.243491   3.964558   5.378470   5.768279
                    6          7          8          9         10
     6  C    0.000000
     7  C    3.407438   0.000000
     8  C    1.495220   2.935953   0.000000
     9  H    1.094807   4.490068   2.151160   0.000000
    10  H    1.094334   3.300240   2.158993   1.774724   0.000000
    11  C    4.800320   1.483083   4.400608   5.889295   4.518562
    12  C    2.603060   2.966543   1.382067   3.195351   2.815248
    13  H    2.148424   3.618817   1.089033   2.488877   3.069825
    14  H    5.239247   2.145186   5.023074   6.329976   4.994115
[...]
 4848,-0.00057708,-0.00014266,-0.09973767,-0.15460595,0.06113712,0.0010
 4341,0.00033151,0.00022172,-0.01559872,-0.01554012,0.01031860,0.009728
 57,0.01113036,-0.00460096,0.11947641,0.17111261,-0.00020630,0.00008953
 ,-0.00004537,-0.00354292,0.00181039,0.00172680,0.00228199,-0.00132382,
 -0.00056645,-0.02322967,-0.02545871,0.00130734,0.00053724,-0.00094180,
 -0.00021931,0.06375128,0.06276024,-0.08376787,-0.00132113,-0.00045845,
 -0.00014674,0.01606790,0.01346623,-0.00535624,0.00976253,0.00948863,-0
 .00361430,-0.06093648,-0.06177299,0.09058269,0.00042159,-0.00007274,-0
 .00070542,0.00289296,0.00007576,0.00191830,-0.02862464,0.00522099,0.01
 804649,-0.00073293,0.00083121,0.00060630,-0.00073974,0.00015023,-0.000
 21380,-0.00068056,0.00070623,-0.00047741,-0.16529524,0.02682250,0.0734
 4946,-0.00101293,-0.00373638,-0.00947790,-0.00006607,0.00005486,-0.000
 03577,-0.00001241,-0.00003649,0.00014510,0.49294983,-0.00009394,-0.000
 00147,0.00051284,0.00086507,0.00106063,0.00009315,-0.01016337,0.006318
 00,-0.00254968,-0.00182460,0.00168101,0.00008450,0.00043189,0.00006949
 ,0.00063541,-0.00050181,0.00049819,0.00027695,0.03593775,-0.07293893,-
 0.01190658,-0.00061138,0.00228295,-0.00417827,-0.00047524,0.00008662,-
 0.00022175,-0.00006463,0.00001034,0.00026982,0.01494917,0.53094026,0.0
 0011784,0.00018280,-0.00008038,-0.00061960,-0.00120957,0.00181028,-0.0
 1972906,-0.00129171,0.00445001,-0.00010792,0.00028986,0.00044168,-0.00
 092562,0.00010934,-0.00044208,-0.00040359,0.00056917,-0.00010187,0.093
 79667,-0.01086751,-0.09497698,-0.00300736,-0.00467378,-0.01003392,-0.0
 0011768,0.00013215,0.00000026,0.00004522,-0.00017400,0.00012138,0.0323
 1482,-0.00002302,0.52671045,0.00166907,-0.00061522,0.00059752,-0.00010
 174,0.00389362,0.00865790,0.04924996,-0.01456860,-0.04194421,0.0004178
 0,0.00300979,0.00375803,-0.00040107,-0.00001430,0.00006655,-0.00433465
 ,-0.00118023,-0.02224990,-0.06385260,-0.02099860,-0.03293492,-0.296381
 97,-0.02037033,-0.09162456,0.00335052,-0.00254979,0.00317873,-0.000154
 19,-0.00024943,-0.00011267,0.00785583,0.00408749,0.01292729,0.64078794
 ,0.00024859,0.00044369,-0.00006359,0.00160283,-0.00171065,0.00309744,0
 .01551291,-0.00577423,-0.02247079,0.00133191,0.00063191,0.00466522,-0.
 00046595,0.00025747,0.00003001,0.01827672,0.00614049,0.00554113,-0.014
 80294,-0.00428732,-0.01587863,-0.01496314,-0.08029736,0.04008701,0.001
 59486,-0.00182523,0.00188617,-0.00076244,0.00038888,-0.00110044,0.0002
 6951,0.00060817,0.00128417,0.10459301,0.37886445,0.00134552,-0.0002399
 9,0.00030820,-0.00182524,0.00365052,0.00511231,0.01794191,-0.00890104,
 -0.02661410,-0.00486457,-0.00043571,-0.00554229,-0.00078678,-0.0002019
 1,-0.00006500,-0.00817586,-0.00586289,-0.01066484,-0.00768534,-0.00343
 159,-0.00645505,-0.15146642,0.02191586,-0.14871094,0.00051179,-0.00021
 014,0.00063298,0.00026061,-0.00055578,0.00036076,-0.00097081,-0.000742
 59,-0.00225112,0.09003497,-0.21547501,0.50074704,0.00025023,0.00025490
 ,-0.00005097,-0.00058364,-0.00051751,0.00008598,-0.00061538,-0.0010669
 0,-0.00037108,0.00047245,-0.00016660,0.00146443,0.00058900,0.00022763,
 -0.00018433,0.00830460,0.00948557,-0.00606669,-0.00095054,-0.00010614,
 0.00027227,-0.17035554,-0.11922601,0.05712099,0.00122131,-0.00055189,0
 .00053496,-0.00019608,0.00157365,-0.00261347,0.00016372,0.00021135,-0.
 00000364,-0.01996284,-0.01750704,0.01056166,0.18484598,0.00005589,-0.0
 0013819,0.00017460,0.00035732,-0.00026786,0.00006976,0.00181716,0.0032
 1749,-0.00051123,0.00091953,0.00233300,-0.00018132,-0.00022069,0.00039
 596,-0.00014411,-0.01720063,-0.01771662,0.00919946,0.00089427,0.000119
 24,-0.00025631,-0.11663709,-0.15667435,0.06575343,-0.00028515,0.000656
 81,-0.00091478,0.00248573,-0.00192039,0.00332860,0.00004260,-0.0004322
 5,0.00016117,-0.00311645,-0.00062325,0.00348259,0.12822834,0.16792251,
 -0.00014447,-0.00042154,0.00020817,0.00086513,0.00014209,-0.00090098,0
 .00127858,0.00380179,0.00044555,-0.00002346,-0.00106138,0.00241671,-0.
 00039313,-0.00040325,-0.00057395,0.01319430,0.01466571,-0.00768686,0.0
 0180715,0.00030302,-0.00012429,0.06262858,0.07003933,-0.08033340,-0.00
 076188,-0.00030727,0.00058238,-0.00227072,0.00292104,-0.00122129,-0.00
 011047,-0.00048486,0.00002289,-0.01683135,-0.01133270,0.00920927,-0.05
 739944,-0.07752378,0.07998363,-0.00030387,0.00001072,-0.00039155,0.000
 43479,0.00020987,0.00017905,0.00534155,-0.00033814,-0.00116798,-0.0000
 8479,-0.00013931,-0.00039022,0.00006554,-0.00003990,-0.00004224,0.0003
 1526,-0.00037040,0.00010742,-0.00067044,0.00863470,0.02575656,0.000793
 09,0.00115321,0.00321839,0.00000918,-0.00002799,-0.00000775,0.00000685
 ,0.00004049,-0.00005088,-0.06089769,-0.01997509,-0.05815245,-0.0034562
 1,0.00011892,0.00096132,-0.00005704,0.00000222,0.00004896,0.06725041,0
 .00008304,-0.00000715,-0.00006623,0.00002669,-0.00007081,-0.00040571,-
 0.00159099,-0.00009414,0.00142691,0.00025702,-0.00010148,0.00017054,-0
 .00006199,0.00000791,0.00003651,-0.00006121,0.00011591,-0.00004761,0.0
 0143314,-0.00190173,-0.00597029,-0.00019560,-0.00026923,-0.00110737,0.
 00000625,-0.00000860,0.00001492,-0.00001866,-0.00001180,0.00000125,-0.
 02066686,-0.07154575,-0.07220480,0.00117901,0.00010036,-0.00007282,0.0
 0005359,-0.00002981,-0.00005956,0.02012822,0.07154082,0.00034324,-0.00
 006173,-0.00004719,0.00054677,-0.00027705,-0.00020640,-0.00428352,0.00
 088704,0.00265266,0.00025097,0.00005001,0.00037106,0.00013469,0.000084
 65,-0.00003364,-0.00027757,0.00030033,-0.00016880,0.00432445,-0.005443
 83,-0.01460295,-0.00061774,-0.00087275,-0.00251075,0.00004058,-0.00000
 902,0.00002710,-0.00001242,-0.00004434,0.00003237,-0.06055390,-0.07187
 093,-0.26458522,0.00263426,-0.00004764,-0.00024964,0.00008888,-0.00004
 453,-0.00008342,0.06101295,0.08169173,0.28881437,0.00001685,0.00004630
 ,-0.00015321,-0.00028083,-0.00054311,0.00034931,-0.00014886,0.00021036
 ,0.00203278,0.00022486,-0.00011748,-0.00003020,-0.00025363,0.00002570,
 -0.00016085,0.00002451,-0.00003003,-0.00000455,-0.02186122,0.02047434,
 -0.00662353,-0.00021705,-0.00088436,-0.00069963,0.00001972,0.00002028,
 0.00001828,0.00000701,-0.00001810,-0.00000810,-0.11594212,0.10157985,-
 0.06626822,0.00087336,0.00042147,0.00007360,-0.00005443,0.00009522,0.0
 0007467,-0.00418087,0.00483922,-0.00402165,0.13136882,-0.00002389,-0.0
 0001500,-0.00007363,0.00018906,0.00019455,-0.00018267,-0.00118775,-0.0
 0015224,0.00060985,0.00009012,-0.00011345,-0.00001984,0.00006397,-0.00
 007522,0.00002362,-0.00001160,0.00002732,0.00010408,0.00435395,-0.0027
 0971,-0.00062373,0.00004916,0.00009342,-0.00000351,0.00000639,-0.00000
 353,-0.00001377,-0.00000679,0.00000738,-0.00000132,0.10125093,-0.17840
 305,0.08576369,-0.00009373,0.00007217,0.00012378,-0.00000530,-0.000015
 22,-0.00002040,-0.00685907,0.00849488,-0.00488326,-0.11165069,0.192547
 53,-0.00001717,0.00001883,0.00002178,-0.00008122,0.00064460,-0.0007272
 1,0.00219613,0.00054092,-0.00039282,0.00008137,-0.00016677,-0.00006606
 ,0.00048070,-0.00006663,0.00013846,-0.00000439,0.00007661,0.00022434,0
 .01038803,-0.01671176,0.00812607,0.00015523,0.00054675,0.00043180,0.00
 001801,-0.00000896,-0.00003248,-0.00000968,0.00001968,-0.00002697,-0.0
 6401922,0.08549884,-0.10201297,-0.00044102,0.00003773,0.00014339,0.000
 02772,-0.00006112,-0.00005775,-0.01483276,0.02116377,-0.01326344,0.066
 73590,-0.09282015,0.10831005,-0.00001170,-0.00001518,-0.00002821,0.000
 49792,0.00011839,0.00049293,-0.00170942,0.00098437,0.00121873,-0.00047
 884,0.00055682,0.00000589,0.00002522,0.00002384,0.00005172,-0.00023273
 ,-0.00009408,0.00003123,-0.02152301,-0.01947384,0.00567330,-0.00004818
 ,0.00021814,-0.00105504,-0.00010658,0.00005904,-0.00005767,0.00000650,
 0.00004560,0.00006911,-0.12936782,-0.12571704,0.00871473,0.00076862,0.
 00026137,0.00007312,0.00001411,-0.00003506,-0.00006286,-0.00450599,-0.
 00566822,-0.00018760,0.01086044,0.01368680,-0.00082828,0.14610336,0.00
 002970,-0.00000594,0.00001606,-0.00015262,-0.00033385,-0.00001888,0.00
 250472,-0.00040425,-0.00019631,0.00021474,-0.00015003,0.00000499,-0.00
 002338,-0.00001016,-0.00003756,0.00001822,0.00005508,0.00004677,0.0042
 0318,0.00928683,-0.00092721,0.00001386,0.00000497,0.00020518,-0.000011
 01,-0.00000584,0.00000083,0.00000095,-0.00003363,-0.00000337,-0.124638
 77,-0.21817115,0.01084854,-0.00014156,-0.00001989,0.00002373,-0.000015
 40,0.00001062,0.00002584,-0.00359008,-0.00700713,0.00053724,-0.0137440
 2,-0.01983957,0.00107849,0.13521551,0.23595250,-0.00001770,0.00002620,
 0.00005811,-0.00036895,-0.00070474,-0.00034458,0.00218655,0.00025700,0
 .00035435,0.00048961,-0.00035297,-0.00008287,0.00017871,-0.00004422,-0
 .00003980,0.00004490,0.00011685,0.00026963,0.00982910,0.01477144,-0.00
 371037,0.00000321,-0.00013748,0.00031108,0.00005088,-0.00000911,-0.000
 01488,0.00000791,-0.00001673,-0.00002980,0.00981469,0.01006080,-0.0479
 6433,-0.00020205,0.00002832,0.00029339,-0.00004693,0.00001481,0.000031
 16,-0.01719461,-0.02436310,0.00310738,0.00874939,0.01240274,-0.0013486
 6,-0.01376834,-0.01219310,0.04889567,-0.00224317,0.00061861,-0.0008445
 0,0.00377677,-0.00443280,-0.00690084,-0.03981852,0.00456470,0.02009169
 ,0.00130508,0.00038934,0.00055176,0.00054231,0.00000399,-0.00004124,-0
 .00069245,0.00132341,0.00627727,0.03387498,0.01633364,0.03198683,-0.04
 091322,-0.02364076,-0.02962795,-0.00139253,0.00076990,-0.00097028,-0.0
 0032635,-0.00018504,0.00016534,-0.00167899,-0.00151266,-0.00524600,-0.
 24694277,-0.09722672,0.06694164,-0.00188078,-0.00028064,-0.00304330,0.
 00084316,-0.00022754,-0.00062454,-0.00044843,0.00003608,-0.00002959,-0
 .00014696,-0.00003766,-0.00036446,0.60909285,0.00027362,-0.00010772,0.
 00050206,-0.00161277,0.00273082,0.00013453,0.01946578,-0.00028813,-0.0
 0185059,-0.00017998,-0.00065279,-0.00011884,0.00013946,-0.00016037,0.0
 0003596,0.00138355,0.00081824,-0.00418514,-0.03099489,-0.02119271,-0.0
 3795091,-0.00216156,0.00582945,0.00382544,0.00009962,-0.00090299,0.000
 74774,-0.00032517,-0.00052039,0.00025846,0.00238222,0.00264185,0.00799
 060,-0.11123980,-0.12921721,0.06632393,-0.00157964,0.00375533,0.003319
 20,-0.00132446,0.00063353,0.00081003,0.00039469,-0.00022461,-0.0002878
 5,0.00057053,0.00013932,-0.00043127,0.11660082,0.43640629,0.00120054,-
 0.00036577,0.00086334,-0.00040263,0.00214242,0.00606961,0.04310974,-0.
 00912697,-0.02460318,-0.00178201,0.00174393,0.00048800,-0.00033069,-0.
 00009107,-0.00006573,0.00087906,-0.00404089,-0.00776052,-0.06315701,-0
 .03846412,-0.06836904,0.00128719,0.00010104,0.04637703,0.00162792,-0.0
 0126349,0.00169460,0.00024573,0.00025700,-0.00034734,0.00481680,0.0051
 1621,0.01345796,0.01182105,0.05259468,-0.10640969,-0.00546782,-0.00002
 255,0.00020065,-0.00237556,0.00095801,0.00154039,0.00108400,-0.0002481
 5,-0.00070172,0.00125965,0.00008711,-0.00052442,0.11867966,-0.21988598
 ,0.37632968,0.00012198,-0.00010003,-0.00000434,-0.00068202,0.00077410,
 0.00031517,0.00056607,-0.00010626,-0.00010281,-0.00135649,0.00004021,-
 0.00244097,-0.00005244,-0.00010274,-0.00002626,-0.00054902,-0.00408926
 ,-0.00306408,-0.00064653,-0.00036649,-0.00051124,-0.00459203,0.0198604
 7,-0.02168853,0.00004337,-0.00008981,0.00034245,0.00016552,0.00022695,
 -0.00003028,0.00004161,0.00007825,0.00011310,-0.05667014,0.01402025,-0
 .02119772,-0.00015716,0.00190788,0.00116897,-0.00001693,0.00003243,-0.
 00001017,-0.00000216,0.00001530,0.00001234,0.00006251,0.00000537,-0.00
 003701,0.00316228,-0.02234362,0.01946822,0.06297680,0.00001659,0.00000
 040,0.00001746,0.00024444,-0.00022597,0.00027417,0.00091777,-0.0004208
 3,-0.00089189,0.00063469,-0.00027587,0.00109663,0.00005905,0.00001287,
 -0.00000477,-0.00238179,0.00393875,0.00248804,-0.00047433,-0.00012730,
 -0.00033624,-0.00215899,0.00415798,0.00005032,-0.00015052,0.00051387,-
 0.00052144,-0.00015102,-0.00000789,-0.00019708,0.00007986,-0.00005150,
 -0.00005799,0.01209094,-0.17003900,0.14651423,0.00157499,-0.00128658,-
 0.00333736,-0.00001485,-0.00001450,0.00003511,0.00000764,0.00001608,0.
 00000009,0.00001917,-0.00004244,-0.00000877,0.00093419,-0.00712053,0.0
 1067484,-0.00907141,0.16936424,-0.00003692,-0.00001345,-0.00003611,0.0
 0010350,0.00012699,0.00019035,0.00002090,-0.00035542,-0.00026368,0.000
 08678,-0.00014887,0.00004872,0.00010066,-0.00004664,-0.00002195,-0.002
 51264,0.00060637,0.00312960,-0.00013708,0.00004497,0.00000920,-0.00337
 756,0.01358696,-0.00885325,-0.00025415,0.00061762,-0.00049251,0.000076
 11,-0.00015959,-0.00002157,0.00017718,0.00003021,0.00003228,-0.0217262
 0,0.13826154,-0.19860351,0.00140092,-0.00270265,-0.00141658,-0.0000777
 7,-0.00001887,0.00006700,0.00002668,0.00000568,-0.00004019,-0.00001578
 ,-0.00003849,0.00000713,-0.00033957,0.00918141,-0.00450517,0.02506496,
 -0.15841733,0.20782408,0.00006800,-0.00000787,0.00006856,0.00023434,-0
 .00014110,0.00016843,0.00082120,-0.00033702,-0.00058294,0.00018089,0.0
 0054249,0.00020034,-0.00006438,0.00004698,0.00001960,-0.00080914,-0.00
 027425,-0.00044272,-0.00087458,-0.00109799,-0.00126527,0.00059425,0.00
 158234,0.00107329,0.00000512,0.00000599,-0.00008641,-0.00087179,0.0003
 2933,-0.00067567,0.00008805,0.00019193,0.00003812,0.00543327,-0.024335
 24,0.01656461,-0.00018914,0.00067331,0.00036455,-0.00001783,-0.0000613
 9,0.00000916,0.00001173,-0.00003130,-0.00002049,-0.00006766,0.00000521
 ,0.00010618,-0.05297473,0.00704185,-0.01372996,-0.00377921,-0.00328839
 ,0.00041388,0.04985672,-0.00040673,0.00012303,-0.00016511,0.00027687,-
 0.00045963,-0.00121914,-0.00480418,0.00125736,0.00208543,0.00021902,0.
 00015860,0.00004908,0.00009628,0.00001918,0.00001923,-0.00032552,-0.00
 112707,0.00097228,0.00544452,0.00292939,0.00481309,-0.00026161,-0.0015
 7072,-0.00427015,0.00005999,0.00032422,-0.00033600,0.00041597,0.000868
 80,-0.00014862,-0.00053305,-0.00070230,-0.00119053,0.00755300,-0.00457
 601,0.00415605,-0.00014476,0.00015458,-0.00009924,0.00028169,-0.000060
 55,-0.00015584,-0.00003368,0.00005203,0.00008961,0.00009497,-0.0000991
 3,-0.00012273,0.00010982,-0.22947040,0.14247118,-0.00199115,0.00296028
 ,0.00172797,-0.00542950,0.24692547,-0.00038374,0.00011007,-0.00018849,
 0.00046070,0.00013051,-0.00141148,-0.00490941,0.00097755,0.00268686,0.
 00021667,-0.00026857,0.00011554,0.00007183,-0.00000325,0.00001997,-0.0
 0039791,0.00089172,0.00104175,0.00582391,0.00118701,0.00587404,-0.0008
 7440,-0.00385910,-0.00560981,-0.00042548,0.00004749,-0.00018019,-0.000
 79618,-0.00035606,0.00045407,-0.00062354,-0.00056744,-0.00094835,0.006
 58364,0.01272103,-0.00813963,0.00019787,-0.00001185,-0.00003674,0.0002
 7580,0.00001580,-0.00018162,-0.00009732,0.00002797,0.00006398,0.000093
 27,0.00004425,-0.00007619,-0.01570275,0.13274806,-0.12088480,0.0018835
 6,0.00398101,0.00305293,0.00836530,-0.14526585,0.13608822,-0.00004013,
 0.00011981,-0.00031754,-0.00185894,-0.00100102,-0.00111641,-0.02152055
 ,-0.00268968,-0.00488105,0.00060620,-0.00110629,-0.00094662,0.00006589
 ,-0.00003962,0.00007396,-0.00041356,0.00089296,0.00379832,-0.00999616,
 0.00382472,0.00590186,-0.00749867,-0.00391101,-0.00871446,-0.00061733,
 0.00060062,-0.00093375,-0.00003327,0.00040072,-0.00002462,0.00072156,0
 .00261846,0.00655884,0.00181338,0.01000037,0.01005332,0.00024048,0.000
 40444,0.00021477,-0.00088722,0.00052853,0.00123017,-0.00001090,0.00009
 957,0.00015076,-0.00014481,0.00014105,0.00047066,-0.03103406,0.0116681
 7,0.01709654,0.00054161,-0.00036717,-0.00018639,0.00039336,-0.00042336
 ,-0.00098183,0.06723168,-0.00201768,0.00063662,-0.00121904,0.00407596,
 -0.00047008,-0.00635823,-0.05074370,0.00576063,0.01373461,0.00065847,-
 0.00052572,0.00019647,0.00133490,-0.00006609,-0.00018008,-0.00116231,0
 .00144879,0.00369296,0.04753738,-0.00036504,0.04424240,-0.00807792,-0.
 00977689,-0.02992573,-0.00046615,0.00065863,-0.00071090,0.00034477,-0.
 00020327,0.00020140,-0.00305994,-0.00392495,-0.01536673,0.04343504,0.0
 0930745,-0.00241706,-0.00017732,0.00024820,-0.00018444,0.00199402,0.00
 024907,-0.00066774,-0.00114541,0.00013040,0.00054014,-0.00093369,0.000
 67218,0.00083949,-0.02388635,-0.01606906,0.03563222,0.00074243,0.00014
 034,0.00026221,0.00417800,-0.01800461,-0.01722634,-0.01277418,0.031304
 70,-0.00252130,0.00076603,-0.00130387,0.00462460,-0.00817627,-0.008178
 48,-0.07092067,0.00299851,0.01819977,0.00190995,0.00034268,0.00093611,
 0.00041237,0.00006531,-0.00008542,-0.00147384,0.00209776,0.00399005,0.
 06269729,0.03262435,0.03274594,-0.00906060,-0.01064004,-0.04274631,-0.
 00104653,0.00065313,-0.00075183,-0.00005975,-0.00017152,0.00073467,-0.
 00404007,-0.01005359,-0.02367177,0.07170995,0.00663819,-0.01458499,-0.
 00027033,-0.00011519,-0.00092985,0.00304433,-0.00119460,-0.00071397,-0
 .00111336,-0.00003643,0.00134180,-0.00172369,0.00041009,0.00101310,-0.
 03691552,0.01859347,0.03147798,0.00034441,0.00107254,0.00087770,0.0006
 5341,-0.00270546,-0.00399866,-0.01885994,-0.02587626,0.01263892,0.0001
 9034,-0.00004632,0.00006664,-0.00062788,0.00050520,0.00030403,0.001899
 16,0.00042323,0.00037729,0.00002991,-0.00019726,-0.00033732,-0.0000063
 9,0.00002897,0.00001222,0.00038541,-0.00032485,0.00027132,-0.00054237,
 -0.00105964,-0.00144576,-0.00175169,-0.00335826,0.00322038,-0.00000033
 ,-0.00003611,0.00001455,0.00003688,0.00006660,-0.00002831,-0.00008403,
 -0.00001145,-0.00004549,-0.01996157,0.00181075,-0.01835133,-0.00109930
 ,-0.00010820,-0.00060456,0.00001903,-0.00001465,-0.00002702,-0.0000068
 0,0.00002879,0.00003764,0.00000501,0.00000198,0.00006823,-0.23210445,0
 .01174160,-0.13533043,0.00082238,0.00147913,0.00119248,0.00196152,-0.0
 0019856,0.00122001,0.00244143,0.00014366,0.00260929,0.24839373,-0.0004
 8972,0.00007660,-0.00017205,0.00125017,-0.00104189,-0.00080066,-0.0046
 5699,0.00011526,0.00090850,0.00012999,0.00081811,0.00036597,0.00004727
 ,-0.00002999,-0.00000587,-0.00089727,-0.00081255,0.00030579,0.00230404
 ,0.00136247,0.00265156,-0.00350745,0.00163315,-0.00052750,0.00000204,0
 .00026285,-0.00018726,0.00007183,0.00038904,-0.00026792,-0.00009185,-0
 .00002615,-0.00027185,-0.00470386,0.00155512,-0.00764415,-0.00054550,0
 .00029078,0.00001777,0.00010525,-0.00001981,-0.00001750,0.00005181,-0.
 00008418,-0.00013284,0.00008256,0.00000153,-0.00013339,0.00974566,-0.0
 4702791,0.02173034,0.00055713,-0.00149241,-0.00255064,0.02040661,0.000
 29748,0.01467599,-0.00898710,-0.00115127,-0.00729271,-0.01087462,0.044
 88377,-0.00030487,0.00003098,-0.00010797,0.00091806,-0.00058162,-0.000
 34259,-0.00248758,-0.00044581,0.00001909,-0.00011947,0.00026691,0.0001
 7579,0.00003770,-0.00006155,-0.00001345,-0.00010754,0.00014679,-0.0002
 5573,0.00072828,0.00033443,0.00126393,0.00109369,0.00335375,-0.0009509
 5,-0.00000417,0.00002331,0.00003066,0.00002772,-0.00011304,0.00004317,
 -0.00006082,0.00002001,0.00002179,0.01609700,-0.00050384,0.01148346,0.
 00071903,0.00030501,0.00026468,0.00007901,0.00003153,0.00003471,0.0000
 3602,-0.00013455,-0.00013142,0.00004377,0.00008580,-0.00020510,-0.1440
 4365,0.02023969,-0.14432762,0.00040022,-0.00243160,-0.00098448,-0.0112
 4197,-0.00070526,-0.00774142,-0.00858660,0.00079066,-0.00699089,0.1467
 7617,-0.02065158,0.14871434\\-0.00218789,0.00057752,0.00000325,0.00219
 488,-0.00095136,-0.00000196,-0.00000870,0.00038179,-0.00000510,0.00000
 451,-0.00001082,0.00000910,-0.00000089,0.00000127,0.00000333,-0.000005
 86,-0.00000390,-0.00000789,-0.00001054,0.00001328,0.00001079,0.0000049
 3,0.00000008,-0.00000966,0.00000080,0.00000003,-0.00000066,-0.00000034
 ,-0.00000064,0.00000047,0.00000106,0.00000442,0.00000827,0.00000727,0.
 00000537,0.00000061,0.00000043,-0.00000122,-0.00000186,-0.00000230,0.0
 0000078,0.00000253,0.00000028,0.00000115,0.00000058,0.00000125,-0.0000
 0146,-0.00000040,-0.00000578,-0.00000992,-0.00000539,0.00000059,-0.000
 00033,-0.00000076,0.00000197,-0.00000025,0.00000267,0.00000503,-0.0000
 0937,-0.00000704,-0.00000071,0.00000359,-0.00000088\\\@


 ON A CLEAR DISK YOU CAN SEEK FOREVER.
 Job cpu time:       0 days  2 hours 37 minutes  2.2 seconds.
 Elapsed time:       0 days  0 hours 13 minutes 41.2 seconds.
 File lengths (MBytes):  RWF=    204 Int=      0 D2E=      0 Chk=     32 Scr=      1
 Normal termination of Gaussian 16 at Sat Jun 11 01:27:38 2022.
