 Entering Gaussian System, Link 0=g16
 Input=int_zmat_field_N75.gjf
 Output=int_zmat_field_N75.out
 Initial command:
 /software/gaussian/g16-a03/l1.exe "/local_scratch/11172234/Gau-2892.inp" -scrdir="/local_scratch/11172234/"
 Entering Link 1 = /software/gaussian/g16-a03/l1.exe PID=      2893.
  
 Copyright (c) 1988,1990,1992,1993,1995,1998,2003,2009,2016,
            Gaussian, Inc.  All Rights Reserved.
  
 This is part of the Gaussian(R) 16 program.  It is based on
 the Gaussian(R) 09 system (copyright 2009, Gaussian, Inc.),
 the Gaussian(R) 03 system (copyright 2003, Gaussian, Inc.),
 the Gaussian(R) 98 system (copyright 1998, Gaussian, Inc.),
 the Gaussian(R) 94 system (copyright 1995, Gaussian, Inc.),
 the Gaussian 92(TM) system (copyright 1992, Gaussian, Inc.),
 the Gaussian 90(TM) system (copyright 1990, Gaussian, Inc.),
 the Gaussian 88(TM) system (copyright 1988, Gaussian, Inc.),
 the Gaussian 86(TM) system (copyright 1986, Carnegie Mellon
 University), and the Gaussian 82(TM) system (copyright 1983,
 Carnegie Mellon University). Gaussian is a federally registered
 trademark of Gaussian, Inc.
  
 This software contains proprietary and confidential information,
 including trade secrets, belonging to Gaussian, Inc.
  
 This software is provided under written license and may be
 used, copied, transmitted, or stored only in accord with that
 written license.
  
 The following legend is applicable only to US Government
 contracts under FAR:
  
                    RESTRICTED RIGHTS LEGEND
  
 Use, reproduction and disclosure by the US Government is
 subject to restrictions as set forth in subparagraphs (a)
 and (c) of the Commercial Computer Software - Restricted
 Rights clause in FAR 52.227-19.
  
 Gaussian, Inc.
 340 Quinnipiac St., Bldg. 40, Wallingford CT 06492
  
  
 ---------------------------------------------------------------
 Warning -- This program may not be used in any manner that
 competes with the business of Gaussian, Inc. or will provide
 assistance to any competitor of Gaussian, Inc.  The licensee
 of this program is prohibited from giving any competitor of
 Gaussian, Inc. access to this program.  By using this program,
 the user acknowledges that Gaussian, Inc. is engaged in the
 business of creating and licensing software in the field of
 computational chemistry and represents and warrants to the
 licensee that it is not a competitor of Gaussian, Inc. and that
 it will not use this program in any manner prohibited above.
 ---------------------------------------------------------------
  

 Cite this work as:
 Gaussian 16, Revision A.03,
 M. J. Frisch, G. W. Trucks, H. B. Schlegel, G. E. Scuseria, 
 M. A. Robb, J. R. Cheeseman, G. Scalmani, V. Barone, 
 G. A. Petersson, H. Nakatsuji, X. Li, M. Caricato, A. V. Marenich, 
 J. Bloino, B. G. Janesko, R. Gomperts, B. Mennucci, H. P. Hratchian, 
 J. V. Ortiz, A. F. Izmaylov, J. L. Sonnenberg, D. Williams-Young, 
 F. Ding, F. Lipparini, F. Egidi, J. Goings, B. Peng, A. Petrone, 
 T. Henderson, D. Ranasinghe, V. G. Zakrzewski, J. Gao, N. Rega, 
 G. Zheng, W. Liang, M. Hada, M. Ehara, K. Toyota, R. Fukuda, 
 J. Hasegawa, M. Ishida, T. Nakajima, Y. Honda, O. Kitao, H. Nakai, 
 T. Vreven, K. Throssell, J. A. Montgomery, Jr., J. E. Peralta, 
 F. Ogliaro, M. J. Bearpark, J. J. Heyd, E. N. Brothers, K. N. Kudin, 
 V. N. Staroverov, T. A. Keith, R. Kobayashi, J. Normand, 
 K. Raghavachari, A. P. Rendell, J. C. Burant, S. S. Iyengar, 
 J. Tomasi, M. Cossi, J. M. Millam, M. Klene, C. Adamo, R. Cammi, 
 J. W. Ochterski, R. L. Martin, K. Morokuma, O. Farkas, 
 J. B. Foresman, and D. J. Fox, Gaussian, Inc., Wallingford CT, 2016.
 
 ******************************************
 Gaussian 16:  ES64L-G16RevA.03 25-Dec-2016
                10-Jun-2022 
 ******************************************
 %nprocshared=12
 Will use up to   12 processors via shared memory.
 %chk=checkpoint.chk
 %mem=12GB
 ----------------------------------------------------------------------
 # Opt=(Z-matrix, MaxStep=10) B3LYP/Def2TZVP geom=allcheckpoint guess=r
 ead Field=read NoSymm freq=noraman pop=none
 ----------------------------------------------------------------------
 1/8=10,10=7,18=40,26=3,29=7,38=1/1,3;
 2/12=2,15=1,29=3,40=1/2;
 3/5=44,7=101,11=2,14=-6,25=1,30=1,71=1,74=-5,116=-2/1,2,3;
 4/5=1/1;
 5/5=2,38=6/2;
 7/29=1,30=1/1,2,3,16;
 1/8=10,10=7,18=40,26=3/3(2);
 2/15=1,29=3/2;
 99//99;
 2/15=1,29=3/2;
 3/5=44,7=101,11=2,14=-2,25=1,30=1,71=1,74=-5/1,2,3;
 4/5=5,16=3,69=1/1;
 5/5=2,38=5/2;
 7/30=1/1,2,3,16;
 1/8=10,18=40,26=3/3(-5);
 2/15=1,29=3/2;
 99/9=1/99;
 Structure from the checkpoint file:  "checkpoint.chk"
 ------------------
 int_zmat_initalOpt
 ------------------
 Charge =  0 Multiplicity = 1
 Z-Matrix found in chk file.
 C
 C,1,R2
 C,1,R3,2,A3
 N,1,R4,2,A4,3,D4,0
 C,3,R5,1,A5,2,D5,0
 H,2,R6,1,A6,3,D6,0
 H,3,R7,1,A7,5,D7,0
 C,2,R8,1,A8,6,D8,0
 C,4,R9,1,A9,2,D9,0
 H,4,R10,1,A10,9,D10,0
 C,5,R11,3,A11,1,D11,0
 H,5,R12,3,A12,11,D12,0
 H,8,R13,2,A13,1,D13,0
 H,9,R14,4,A14,1,D14,0
 C,11,R15,5,A15,3,D15,0
 H,11,R16,5,A16,15,D16,0
 O,15,R17,11,A17,5,D17,0
      Variables:
 R2=1.3877431
 R3=1.44772815
 R4=1.37954284
 R5=1.34654178
 R6=1.07563821
 R7=1.08578138
 R8=1.41671812
 R9=1.36787093
 R10=1.00490476
 R11=1.45330783
 R12=1.0829473
 R13=1.07787498
 R14=1.07671824
 R15=1.31830934
 R16=1.08552274
 R17=1.15974223
 A3=133.70656583
 A4=106.28464313
 A5=129.82528203
 A6=125.85290248
 A7=114.70296897
 A8=107.97859104
 A9=110.70256161
 A10=123.78591748
 A11=131.27286092
 A12=116.24529179
 A13=126.53953341
 A14=121.33227061
 A15=128.9195405
 A16=118.12864259
 A17=177.15414291
 D4=175.0427605
 D5=-26.75001749
 D6=1.44919888
 D7=178.59071672
 D8=-176.91458266
 D9=0.60147185
 D10=178.31540754
 D11=-5.49303559
 D12=-179.40470425
 D13=179.33664519
 D14=179.72311459
 D15=-18.40727517
 D16=-173.2299153
 D17=177.12124449
 Recover connectivity data from disk.

 GradGradGradGradGradGradGradGradGradGradGradGradGradGradGradGradGradGrad
 Berny optimization.
 Initialization pass.
                       ----------------------------
                       !    Initial Parameters    !
                       ! (Angstroms and Degrees)  !
 ----------------------                            ----------------------
 !      Name          Value   Derivative information (Atomic Units)     !
 ------------------------------------------------------------------------
 !       R2          1.3877   estimate D2E/DX2                          !
 !       R3          1.4477   estimate D2E/DX2                          !
 !       R4          1.3795   estimate D2E/DX2                          !
 !       R5          1.3465   estimate D2E/DX2                          !
 !       R6          1.0756   estimate D2E/DX2                          !
 !       R7          1.0858   estimate D2E/DX2                          !
 !       R8          1.4167   estimate D2E/DX2                          !
 !       R9          1.3679   estimate D2E/DX2                          !
 !       R10         1.0049   estimate D2E/DX2                          !
 !       R11         1.4533   estimate D2E/DX2                          !
 !       R12         1.0829   estimate D2E/DX2                          !
 !       R13         1.0779   estimate D2E/DX2                          !
 !       R14         1.0767   estimate D2E/DX2                          !
 !       R15         1.3183   estimate D2E/DX2                          !
 !       R16         1.0855   estimate D2E/DX2                          !
 !       R17         1.1597   estimate D2E/DX2                          !
 !       A3        133.7066   estimate D2E/DX2                          !
 !       A4        106.2846   estimate D2E/DX2                          !
 !       A5        129.8253   estimate D2E/DX2                          !
 !       A6        125.8529   estimate D2E/DX2                          !
 !       A7        114.703    estimate D2E/DX2                          !
 !       A8        107.9786   estimate D2E/DX2                          !
 !       A9        110.7026   estimate D2E/DX2                          !
 !       A10       123.7859   estimate D2E/DX2                          !
 !       A11       131.2729   estimate D2E/DX2                          !
 !       A12       116.2453   estimate D2E/DX2                          !
 !       A13       126.5395   estimate D2E/DX2                          !
 !       A14       121.3323   estimate D2E/DX2                          !
 !       A15       128.9195   estimate D2E/DX2                          !
 !       A16       118.1286   estimate D2E/DX2                          !
 !       A17       177.1541   estimate D2E/DX2                          !
 !       D4        175.0428   estimate D2E/DX2                          !
 !       D5        -26.75     estimate D2E/DX2                          !
 !       D6          1.4492   estimate D2E/DX2                          !
 !       D7        178.5907   estimate D2E/DX2                          !
 !       D8       -176.9146   estimate D2E/DX2                          !
 !       D9          0.6015   estimate D2E/DX2                          !
 !       D10       178.3154   estimate D2E/DX2                          !
 !       D11        -5.493    estimate D2E/DX2                          !
 !       D12      -179.4047   estimate D2E/DX2                          !
 !       D13       179.3366   estimate D2E/DX2                          !
 !       D14       179.7231   estimate D2E/DX2                          !
 !       D15       -18.4073   estimate D2E/DX2                          !
 !       D16      -173.2299   estimate D2E/DX2                          !
 !       D17       177.1212   estimate D2E/DX2                          !
 ------------------------------------------------------------------------
 Trust Radius=1.00D-01 FncErr=1.00D-07 GrdErr=1.00D-06 EigMax=2.50D+02 EigMin=1.00D-04
 Number of steps in this run=     55 maximum allowed number of steps=    100.
 GradGradGradGradGradGradGradGradGradGradGradGradGradGradGradGradGradGrad

 ---------------------------------------------------------------------------------------------------
                            Z-MATRIX (ANGSTROMS AND DEGREES)
   CD    Cent   Atom    N1       Length/X        N2       Alpha/Y        N3        Beta/Z          J
 ---------------------------------------------------------------------------------------------------
      1      1  C 
      2      2  C        1   1.387743(     1)
      3      3  C        1   1.447728(     2)      2  133.707(    17)
      4      4  N        1   1.379543(     3)      2  106.285(    18)      3  175.043(    32)      0
      5      5  C        3   1.346542(     4)      1  129.825(    19)      2  -26.750(    33)      0
      6      6  H        2   1.075638(     5)      1  125.853(    20)      3    1.449(    34)      0
      7      7  H        3   1.085781(     6)      1  114.703(    21)      5  178.591(    35)      0
      8      8  C        2   1.416718(     7)      1  107.979(    22)      6 -176.915(    36)      0
      9      9  C        4   1.367871(     8)      1  110.703(    23)      2    0.601(    37)      0
     10     10  H        4   1.004905(     9)      1  123.786(    24)      9  178.315(    38)      0
     11     11  C        5   1.453308(    10)      3  131.273(    25)      1   -5.493(    39)      0
     12     12  H        5   1.082947(    11)      3  116.245(    26)     11 -179.405(    40)      0
     13     13  H        8   1.077875(    12)      2  126.540(    27)      1  179.337(    41)      0
     14     14  H        9   1.076718(    13)      4  121.332(    28)      1  179.723(    42)      0
     15     15  C       11   1.318309(    14)      5  128.920(    29)      3  -18.407(    43)      0
     16     16  H       11   1.085523(    15)      5  118.129(    30)     15 -173.230(    44)      0
     17     17  O       15   1.159742(    16)     11  177.154(    31)      5  177.121(    45)      0
 ---------------------------------------------------------------------------------------------------
                         Z-Matrix orientation:                         
 ---------------------------------------------------------------------
 Center     Atomic      Atomic             Coordinates (Angstroms)
 Number     Number       Type             X           Y           Z
 ---------------------------------------------------------------------
      1          6           0        0.000000    0.000000    0.000000
      2          6           0        0.000000    0.000000    1.387743
      3          6           0        1.046545    0.000000   -1.000330
      4          7           0       -1.319243   -0.114427   -0.386837
      5          6           0        2.308043    0.465468   -0.928647
      6          1           0        0.871551    0.022049    2.017751
      7          1           0        0.773658   -0.465515   -1.942534
      8          6           0       -1.343324   -0.106539    1.825030
      9          6           0       -2.140267   -0.172157    0.705710
     10          1           0       -1.621721   -0.124816   -1.345082
     11          6           0        2.999674    1.203642    0.114832
     12          1           0        2.937335    0.277987   -1.789819
     13          1           0       -1.684577   -0.143661    2.846784
     14          1           0       -3.208277   -0.258239    0.599564
     15          6           0        2.491906    1.889502    1.119675
     16          1           0        4.077173    1.310523    0.037816
     17          8           0        2.098876    2.503131    2.021888
 ---------------------------------------------------------------------
                    Distance matrix (angstroms):
                    1          2          3          4          5
     1  C    0.000000
     2  C    1.387743   0.000000
     3  C    1.447728   2.607326   0.000000
     4  N    1.379543   2.214188   2.446716   0.000000
     5  C    2.531029   3.302936   1.346542   3.713090   0.000000
     6  H    2.198046   1.075638   3.023230   3.255802   3.307777
     7  H    2.142123   3.450507   1.085781   2.631291   2.061319
     8  C    2.268613   1.416718   3.702092   2.212012   4.608949
     9  C    2.260179   2.252898   3.618837   1.367871   4.781751
    10  H    2.110640   3.180234   2.693339   1.004905   3.995609
    11  C    3.234190   3.473773   2.550892   4.543349   1.453308
    12  H    3.450893   4.336140   2.067766   4.498978   1.082947
    13  H    3.310985   2.233213   4.720165   3.254325   5.528647
    14  H    3.274020   3.313752   4.553006   2.135912   5.769659
    15  C    3.321669   3.138738   3.186488   4.561816   2.501460
    16  H    4.282784   4.490336   3.461202   5.597510   2.185861
    17  O    3.841742   3.327625   4.062864   4.933265   3.591863
                    6          7          8          9         10
     6  H    0.000000
     7  H    3.991386   0.000000
     8  C    2.226960   4.336475   0.000000
     9  C    3.290930   3.948444   1.375609   0.000000
    10  H    4.188868   2.492160   3.182364   2.115863   0.000000
    11  C    3.089687   3.460346   4.847987   5.353592   5.025280
    12  H    4.339419   2.292949   5.615962   5.675591   4.598373
    13  H    2.692313   5.392966   1.077875   2.189216   4.192380
    14  H    4.328373   4.728745   2.236700   1.076718   2.513287
    15  C    2.630489   4.227956   4.380719   5.087125   5.201387
    16  H    3.982000   4.241381   5.880815   6.426584   6.037383
    17  O    2.768052   5.126959   4.324104   5.182647   5.664400
                   11         12         13         14         15
    11  C    0.000000
    12  H    2.118589   0.000000
    13  H    5.587575   6.560331   0.000000
    14  H    6.396148   6.615530   2.717497   0.000000
    15  C    1.318309   3.355673   4.955772   6.113542   0.000000
    16  H    1.085523   2.388642   6.572878   7.473577   2.004671
    17  O    2.477291   4.492593   4.690467   6.149313   1.159742
                   16         17
    16  H    0.000000
    17  O    3.045080   0.000000
 Symmetry turned off by external request.
 Stoichiometry    C8H7NO
 Framework group  C1[X(C8H7NO)]
 Deg. of freedom    45
 Full point group                 C1      NOp   1
 Rotational constants (GHZ):           2.3977519           0.9832192           0.7351677
 Standard basis: def2TZVP (5D, 7F)
 The following finite field(s) will be applied:
 An electric field of             -0.0063  0.0013  0.0038
   352 basis functions,   566 primitive gaussians,   402 cartesian basis functions
    35 alpha electrons       35 beta electrons
       nuclear repulsion energy       460.5613445120 Hartrees.
 NAtoms=   17 NActive=   17 NUniq=   17 SFac= 1.00D+00 NAtFMM=   60 NAOKFM=F Big=F
 Integral buffers will be    131072 words long.
 Raffenetti 2 integral format.
 Two-electron integral symmetry is turned off.
 One-electron integrals computed using PRISM.
   1 Symmetry operations used in ECPInt.
 ECPInt:  NShTT=    9591 NPrTT=   29644 LenC2=    9224 LenP2D=   22147.
 LDataN:  DoStor=T MaxTD1= 6 Len=  172
 NBasis=   352 RedAO= T EigKep=  3.34D-05  NBF=   352
 NBsUse=   352 1.00D-06 EigRej= -1.00D+00 NBFU=   352
 The nuclear repulsion energy is now       460.3951340045 hartrees.
 Initial guess from the checkpoint file:  "checkpoint.chk"
 B after Tr=     0.000000    0.000000    0.000000
         Rot=    1.000000    0.000000    0.000000   -0.000000 Ang=   0.00 deg.
 Requested convergence on RMS density matrix=1.00D-08 within 128 cycles.
 Requested convergence on MAX density matrix=1.00D-06.
 Requested convergence on             energy=1.00D-06.
 No special actions if energy rises.
 SCF Done:  E(RB3LYP) =  -439.160801547     A.U. after   11 cycles
            NFock= 11  Conv=0.44D-08     -V/T= 2.0050
   1 Symmetry operations used in ECPInt.
 ECPInt:  NShTT=    9591 NPrTT=   29644 LenC2=    9224 LenP2D=   22147.
 LDataN:  DoStor=T MaxTD1= 7 Len=  274
 Calling FoFJK, ICntrl=      2127 FMM=F ISym2X=0 I1Cent= 0 IOpClX= 0 NMat=1 NMatS=1 NMatT=0.
 -------------------------------------------------------------------
 Center     Atomic                   Forces (Hartrees/Bohr)
 Number     Number              X              Y              Z
 -------------------------------------------------------------------
      1        6           0.001547661   -0.000729354    0.000039320
      2        6          -0.001341403    0.000453660    0.000241743
      3        6           0.000063172    0.000275601   -0.000588470
      4        7           0.000293609    0.000250258    0.000043209
      5        6           0.000126288    0.000405796    0.000482550
      6        1           0.000048624   -0.000069257   -0.000163744
      7        1           0.000073090   -0.000051246    0.000124549
      8        6          -0.000200488    0.000207489   -0.000150645
      9        6          -0.000798949   -0.000024173    0.000344693
     10        1           0.000383715   -0.000120654   -0.000165916
     11        6          -0.000721939    0.000160568    0.000321649
     12        1           0.000024121   -0.000041097    0.000080360
     13        1          -0.000019039   -0.000087571    0.000283898
     14        1          -0.000170156   -0.000134105   -0.000124439
     15        6           0.001247612   -0.001268759   -0.001776212
     16        1           0.000322411   -0.000018633   -0.000109915
     17        8          -0.000878329    0.000791477    0.001117371
 -------------------------------------------------------------------
 Cartesian Forces:  Max     0.001776212 RMS     0.000577137
 -----------------------------------------------------------------------------------------------
                       Internal Coordinate Forces (Hartree/Bohr or radian)
  Cent   Atom   N1       Length/X         N2         Alpha/Y        N3         Beta/Z          J
 -----------------------------------------------------------------------------------------------
      1  C 
      2  C        1   0.000211(     1)
      3  C        1   0.000426(     2)      2  -0.000154(    17)
      4  N        1   0.000254(     3)      2   0.002204(    18)      3  -0.000468(    32)     0
      5  C        3   0.000129(     4)      1  -0.000211(    19)      2  -0.000084(    33)     0
      6  H        2  -0.000058(     5)      1  -0.000326(    20)      3  -0.000410(    34)     0
      7  H        3  -0.000104(     6)      1   0.000024(    21)      5  -0.000208(    35)     0
      8  C        2   0.000240(     7)      1   0.000300(    22)      6  -0.000293(    36)     0
      9  C        4   0.000764(     8)      1   0.001898(    23)      2   0.000015(    37)     0
     10  H        4   0.000044(     9)      1  -0.000765(    24)      9   0.000250(    38)     0
     11  C        5  -0.000506(    10)      3   0.000122(    25)      1  -0.000097(    39)     0
     12  H        5  -0.000043(    11)      3   0.000072(    26)     11  -0.000138(    40)     0
     13  H        8   0.000278(    12)      2  -0.000135(    27)      1  -0.000135(    41)     0
     14  H        9   0.000192(    13)      4  -0.000218(    28)      1   0.000207(    42)     0
     15  C       11  -0.000893(    14)      5  -0.000725(    29)      3  -0.000006(    43)     0
     16  H       11   0.000326(    15)      5  -0.000206(    30)     15   0.000004(    44)     0
     17  O       15   0.001586(    16)     11   0.000796(    31)      5   0.000002(    45)     0
 -----------------------------------------------------------------------------------------------
 Internal  Forces:  Max     0.002204406 RMS     0.000596835

 GradGradGradGradGradGradGradGradGradGradGradGradGradGradGradGradGradGrad
 Berny optimization.
 Search for a local minimum.
 Step number   1 out of a maximum of   55
 All quantities printed in internal units (Hartrees-Bohrs-Radians)
 Second derivative matrix not updated -- first step.
 ITU=  0
     Eigenvalues ---    0.02673   0.02870   0.03573   0.04048   0.06532
     Eigenvalues ---    0.07818   0.09372   0.09587   0.13917   0.17314
     Eigenvalues ---    0.18356   0.20552   0.20645   0.21145   0.21840
     Eigenvalues ---    0.23553   0.25833   0.27426   0.27586   0.28072
     Eigenvalues ---    0.29577   0.35304   0.35334   0.35641   0.36252
     Eigenvalues ---    0.36394   0.36527   0.37815   0.38544   0.41083
     Eigenvalues ---    0.44292   0.46839   0.48682   0.50856   0.53812
     Eigenvalues ---    0.55763   0.56078   0.56881   0.62316   0.62720
     Eigenvalues ---    0.82501   1.27964   1.73226   1.84338  16.27989
 RFO step:  Lambda=-1.87679148D-05 EMin= 2.67272067D-02
 Linear search not attempted -- first point.
 Variable       Old X    -DE/DX   Delta X   Delta X   Delta X     New X
                                 (Linear)    (Quad)   (Total)
    R2        2.62245   0.00021   0.00000   0.00004   0.00004   2.62250
    R3        2.73581   0.00043   0.00000   0.00111   0.00111   2.73692
    R4        2.60696   0.00025   0.00000  -0.00061  -0.00061   2.60635
    R5        2.54460   0.00013   0.00000   0.00023   0.00023   2.54483
    R6        2.03266  -0.00006   0.00000  -0.00016  -0.00016   2.03250
    R7        2.05183  -0.00010   0.00000  -0.00029  -0.00029   2.05154
    R8        2.67721   0.00024   0.00000   0.00159   0.00159   2.67880
    R9        2.58490   0.00076   0.00000   0.00115   0.00115   2.58605
   R10        1.89899   0.00004   0.00000   0.00011   0.00011   1.89910
   R11        2.74635  -0.00051   0.00000  -0.00134  -0.00134   2.74502
   R12        2.04647  -0.00004   0.00000  -0.00012  -0.00012   2.04636
   R13        2.03689   0.00028   0.00000   0.00077   0.00077   2.03766
   R14        2.03470   0.00019   0.00000   0.00053   0.00053   2.03523
   R15        2.49124  -0.00089   0.00000  -0.00144  -0.00144   2.48981
   R16        2.05134   0.00033   0.00000   0.00092   0.00092   2.05226
   R17        2.19160   0.00159   0.00000   0.00124   0.00124   2.19284
    A3        2.33362  -0.00015   0.00000  -0.00026  -0.00026   2.33336
    A4        1.85502   0.00220   0.00000   0.00039   0.00039   1.85541
    A5        2.26588  -0.00021   0.00000  -0.00029  -0.00029   2.26559
    A6        2.19655  -0.00033   0.00000  -0.00065  -0.00065   2.19590
    A7        2.00194   0.00002   0.00000   0.00019   0.00019   2.00213
    A8        1.88458   0.00030   0.00000  -0.00078  -0.00078   1.88380
    A9        1.93212   0.00190   0.00000   0.00104   0.00104   1.93317
   A10        2.16047  -0.00077   0.00000  -0.00292  -0.00292   2.15755
   A11        2.29114   0.00012   0.00000   0.00059   0.00059   2.29173
   A12        2.02886   0.00007   0.00000  -0.00010  -0.00010   2.02876
   A13        2.20853  -0.00014   0.00000  -0.00086  -0.00086   2.20767
   A14        2.11765  -0.00022   0.00000  -0.00006  -0.00006   2.11759
   A15        2.25007  -0.00073   0.00000  -0.00155  -0.00155   2.24852
   A16        2.06173  -0.00021   0.00000   0.00010   0.00010   2.06184
   A17        3.09192   0.00080   0.00000   0.00291   0.00291   3.09483
    D4        3.05507  -0.00047   0.00000  -0.00364  -0.00364   3.05144
    D5       -0.46688  -0.00008   0.00000  -0.00024  -0.00024  -0.46711
    D6        0.02529  -0.00041   0.00000   0.00135   0.00135   0.02664
    D7        3.11700  -0.00021   0.00000  -0.00236  -0.00236   3.11464
    D8       -3.08774  -0.00029   0.00000   0.00134   0.00134  -3.08641
    D9        0.01050   0.00001   0.00000  -0.00045  -0.00045   0.01004
   D10        3.11219   0.00025   0.00000   0.00429   0.00429   3.11648
   D11       -0.09587  -0.00010   0.00000  -0.00044  -0.00044  -0.09631
   D12       -3.13120  -0.00014   0.00000  -0.00118  -0.00118  -3.13238
   D13        3.13001  -0.00014   0.00000  -0.00206  -0.00206   3.12795
   D14        3.13676   0.00021   0.00000   0.00466   0.00466   3.14142
   D15       -0.32127  -0.00001   0.00000  -0.00018  -0.00018  -0.32144
   D16       -3.02343   0.00000   0.00000   0.00019   0.00019  -3.02325
   D17        3.09135   0.00000   0.00000   0.00017   0.00017   3.09151
         Item               Value     Threshold  Converged?
 Maximum Force            0.002204     0.000450     NO 
 RMS     Force            0.000597     0.000300     NO 
 Maximum Displacement     0.004660     0.001800     NO 
 RMS     Displacement     0.001523     0.001200     NO 
 Predicted change in Energy=-9.383957D-06
 GradGradGradGradGradGradGradGradGradGradGradGradGradGradGradGradGradGrad

 ---------------------------------------------------------------------------------------------------
                            Z-MATRIX (ANGSTROMS AND DEGREES)
   CD    Cent   Atom    N1       Length/X        N2       Alpha/Y        N3        Beta/Z          J
 ---------------------------------------------------------------------------------------------------
      1      1  C 
      2      2  C        1   1.387767(     1)
      3      3  C        1   1.448313(     2)      2  133.692(    17)
      4      4  N        1   1.379219(     3)      2  106.307(    18)      3  174.834(    32)      0
      5      5  C        3   1.346664(     4)      1  129.809(    19)      2  -26.764(    33)      0
      6      6  H        2   1.075555(     5)      1  125.816(    20)      3    1.527(    34)      0
      7      7  H        3   1.085626(     6)      1  114.714(    21)      5  178.456(    35)      0
      8      8  C        2   1.417558(     7)      1  107.934(    22)      6 -176.838(    36)      0
      9      9  C        4   1.368480(     8)      1  110.762(    23)      2    0.575(    37)      0
     10     10  H        4   1.004962(     9)      1  123.619(    24)      9  178.561(    38)      0
     11     11  C        5   1.452601(    10)      3  131.306(    25)      1   -5.518(    39)      0
     12     12  H        5   1.082884(    11)      3  116.239(    26)     11 -179.472(    40)      0
     13     13  H        8   1.078281(    12)      2  126.490(    27)      1  179.218(    41)      0
     14     14  H        9   1.076999(    13)      4  121.329(    28)      1  179.990(    42)      0
     15     15  C       11   1.317549(    14)      5  128.831(    29)      3  -18.417(    43)      0
     16     16  H       11   1.086011(    15)      5  118.134(    30)     15 -173.219(    44)      0
     17     17  O       15   1.160400(    16)     11  177.321(    31)      5  177.131(    45)      0
 ---------------------------------------------------------------------------------------------------
                         Z-Matrix orientation:                         
 ---------------------------------------------------------------------
 Center     Atomic      Atomic             Coordinates (Angstroms)
 Number     Number       Type             X           Y           Z
 ---------------------------------------------------------------------
      1          6           0        0.000000    0.000000    0.000000
      2          6           0        0.000000    0.000000    1.387767
      3          6           0        1.047226    0.000000   -1.000465
      4          7           0       -1.318356   -0.119183   -0.387268
      5          6           0        2.308681    0.465841   -0.928164
      6          1           0        0.871860    0.023235    2.017162
      7          1           0        0.775640   -0.467663   -1.941802
      8          6           0       -1.344168   -0.110240    1.824262
      9          6           0       -2.141043   -0.180653    0.704585
     10          1           0       -1.617347   -0.133549   -1.346615
     11          6           0        2.999812    1.204345    0.114428
     12          1           0        2.938809    0.277055   -1.788360
     13          1           0       -1.685221   -0.150076    2.846409
     14          1           0       -3.208478   -0.275000    0.596844
     15          6           0        2.490294    1.890153    1.117421
     16          1           0        4.077809    1.311280    0.037570
     17          8           0        2.092038    2.503931    2.018086
 ---------------------------------------------------------------------
                    Distance matrix (angstroms):
                    1          2          3          4          5
     1  C    0.000000
     2  C    1.387767   0.000000
     3  C    1.448313   2.607744   0.000000
     4  N    1.379219   2.214276   2.446670   0.000000
     5  C    2.531502   3.303112   1.346664   3.713518   0.000000
     6  H    2.197640   1.075555   3.022807   3.255552   3.306856
     7  H    2.142643   3.450558   1.085626   2.631127   2.061336
     8  C    2.268672   1.417558   3.702701   2.211699   4.609883
     9  C    2.261226   2.254648   3.620068   1.368480   4.783709
    10  H    2.108796   3.179700   2.690279   1.004962   3.993503
    11  C    3.234566   3.474293   2.550692   4.544228   1.452601
    12  H    3.451317   4.336028   2.067758   4.499279   1.082884
    13  H    3.311275   2.233860   4.720935   3.254569   5.529739
    14  H    3.275085   3.315949   4.553903   2.136660   5.771788
    15  C    3.320071   3.138045   3.184425   4.561506   2.499212
    16  H    4.283619   4.491215   3.461417   5.598688   2.185686
    17  O    3.836530   3.323190   4.058688   4.929223   3.589029
                    6          7          8          9         10
     6  H    0.000000
     7  H    3.990443   0.000000
     8  C    2.228409   4.336424   0.000000
     9  C    3.292721   3.948769   1.376097   0.000000
    10  H    4.187568   2.488426   3.182708   2.117522   0.000000
    11  C    3.089271   3.459861   4.849931   5.356762   5.024218
    12  H    4.338052   2.292913   5.616487   5.677074   4.595899
    13  H    2.693762   5.392927   1.078281   2.190004   4.193606
    14  H    4.330752   4.728111   2.238159   1.076999   2.515698
    15  C    2.629495   4.225893   4.382270   5.089985   5.199957
    16  H    3.981953   4.241093   5.883096   6.430000   6.036414
    17  O    2.764540   5.122888   4.321917   5.181819   5.660128
                   11         12         13         14         15
    11  C    0.000000
    12  H    2.117591   0.000000
    13  H    5.589966   6.560882   0.000000
    14  H    6.400317   6.616880   2.719644   0.000000
    15  C    1.317549   3.353627   4.958514   6.118406   0.000000
    16  H    1.086011   2.387669   6.575535   7.477904   2.005337
    17  O    2.477274   4.490549   4.690156   6.151249   1.160400
                   16         17
    16  H    0.000000
    17  O    3.047646   0.000000
 Symmetry turned off by external request.
 Stoichiometry    C8H7NO
 Framework group  C1[X(C8H7NO)]
 Deg. of freedom    45
 Full point group                 C1      NOp   1
 Rotational constants (GHZ):           2.4004077           0.9830660           0.7352696
 Standard basis: def2TZVP (5D, 7F)
 The following finite field(s) will be applied:
 An electric field of             -0.0063  0.0013  0.0038
   352 basis functions,   566 primitive gaussians,   402 cartesian basis functions
    35 alpha electrons       35 beta electrons
       nuclear repulsion energy       460.5642694670 Hartrees.
 NAtoms=   17 NActive=   17 NUniq=   17 SFac= 1.00D+00 NAtFMM=   60 NAOKFM=F Big=F
 Integral buffers will be    131072 words long.
 Raffenetti 2 integral format.
 Two-electron integral symmetry is turned off.
 One-electron integrals computed using PRISM.
   1 Symmetry operations used in ECPInt.
 ECPInt:  NShTT=    9591 NPrTT=   29644 LenC2=    9224 LenP2D=   22151.
 LDataN:  DoStor=T MaxTD1= 6 Len=  172
 NBasis=   352 RedAO= T EigKep=  3.36D-05  NBF=   352
 NBsUse=   352 1.00D-06 EigRej= -1.00D+00 NBFU=   352
 The nuclear repulsion energy is now       460.3979245546 hartrees.
 Initial guess from the checkpoint file:  "checkpoint.chk"
 B after Tr=     0.000788   -0.005981   -0.001225
         Rot=    1.000000    0.000419    0.000200   -0.000848 Ang=   0.11 deg.
 Requested convergence on RMS density matrix=1.00D-08 within 128 cycles.
 Requested convergence on MAX density matrix=1.00D-06.
 Requested convergence on             energy=1.00D-06.
 No special actions if energy rises.
 SCF Done:  E(RB3LYP) =  -439.160812553     A.U. after    9 cycles
            NFock=  9  Conv=0.75D-08     -V/T= 2.0050
   1 Symmetry operations used in ECPInt.
 ECPInt:  NShTT=    9591 NPrTT=   29644 LenC2=    9224 LenP2D=   22151.
 LDataN:  DoStor=T MaxTD1= 7 Len=  274
 Calling FoFJK, ICntrl=      2127 FMM=F ISym2X=0 I1Cent= 0 IOpClX= 0 NMat=1 NMatS=1 NMatT=0.
 -------------------------------------------------------------------
 Center     Atomic                   Forces (Hartrees/Bohr)
 Number     Number              X              Y              Z
 -------------------------------------------------------------------
      1        6           0.001807596   -0.000944725    0.000017139
      2        6          -0.002087439    0.000517684    0.000112216
      3        6           0.000016940    0.000384464   -0.000174150
      4        7           0.000085440    0.000157158   -0.000110463
      5        6          -0.000108482    0.000049481    0.000079072
      6        1          -0.000025459    0.000019683   -0.000022755
      7        1           0.000016961   -0.000037601    0.000033885
      8        6          -0.000001185   -0.000099920   -0.000073014
      9        6          -0.000025866    0.000120727    0.000215359
     10        1           0.000115239   -0.000117257   -0.000054536
     11        6           0.000073979    0.000090145    0.000093784
     12        1           0.000002856   -0.000056267   -0.000009369
     13        1           0.000027630   -0.000040228    0.000021133
     14        1           0.000054779    0.000017180   -0.000033311
     15        6           0.000351892   -0.000165044   -0.000216838
     16        1          -0.000011148   -0.000054794   -0.000051248
     17        8          -0.000293733    0.000159315    0.000173096
 -------------------------------------------------------------------
 Cartesian Forces:  Max     0.002087439 RMS     0.000432299
 -----------------------------------------------------------------------------------------------
                       Internal Coordinate Forces (Hartree/Bohr or radian)
  Cent   Atom   N1       Length/X         N2         Alpha/Y        N3         Beta/Z          J
 -----------------------------------------------------------------------------------------------
      1  C 
      2  C        1   0.000038(     1)
      3  C        1   0.000085(     2)      2  -0.000074(    17)
      4  N        1  -0.000240(     3)      2   0.000066(    18)      3   0.000558(    32)     0
      5  C        3   0.000026(     4)      1   0.000009(    19)      2  -0.000178(    33)     0
      6  H        2  -0.000034(     5)      1  -0.000008(    20)      3   0.000423(    34)     0
      7  H        3  -0.000017(     6)      1  -0.000009(    21)      5  -0.000094(    35)     0
      8  C        2  -0.000030(     7)      1  -0.000059(    22)      6   0.000390(    36)     0
      9  C        4   0.000122(     8)      1  -0.000291(    23)      2   0.000530(    37)     0
     10  H        4   0.000019(     9)      1  -0.000218(    24)      9   0.000203(    38)     0
     11  C        5   0.000072(    10)      3   0.000132(    25)      1  -0.000255(    39)     0
     12  H        5   0.000019(    11)      3  -0.000059(    26)     11  -0.000084(    40)     0
     13  H        8   0.000013(    12)      2  -0.000061(    27)      1  -0.000069(    41)     0
     14  H        9  -0.000052(    13)      4  -0.000079(    28)      1  -0.000022(    42)     0
     15  C       11  -0.000059(    14)      5  -0.000332(    29)      3  -0.000134(    43)     0
     16  H       11  -0.000013(    15)      5  -0.000149(    30)     15  -0.000033(    44)     0
     17  O       15   0.000319(    16)     11   0.000432(    31)      5   0.000003(    45)     0
 -----------------------------------------------------------------------------------------------
 Internal  Forces:  Max     0.000557815 RMS     0.000199691

 GradGradGradGradGradGradGradGradGradGradGradGradGradGradGradGradGradGrad
 Berny optimization.
 Search for a local minimum.
 Step number   2 out of a maximum of   55
 All quantities printed in internal units (Hartrees-Bohrs-Radians)
 Update second derivatives using D2CorN and points    1    2
 DE= -1.10D-05 DEPred=-9.38D-06 R= 1.17D+00
 TightC=F SS=  1.41D+00  RLast= 1.02D-02 DXNew= 1.6818D-01 3.0646D-02
 Trust test= 1.17D+00 RLast= 1.02D-02 DXMaxT set to 1.00D-01
 ITU=  1  0
     Eigenvalues ---    0.02497   0.02701   0.03384   0.04040   0.06485
     Eigenvalues ---    0.07791   0.09369   0.09580   0.13986   0.17245
     Eigenvalues ---    0.18319   0.20067   0.20608   0.21177   0.21915
     Eigenvalues ---    0.23445   0.24975   0.27339   0.27501   0.28011
     Eigenvalues ---    0.29531   0.35300   0.35345   0.35643   0.36241
     Eigenvalues ---    0.36421   0.36524   0.37897   0.38443   0.40631
     Eigenvalues ---    0.44484   0.46838   0.48608   0.50744   0.53757
     Eigenvalues ---    0.55690   0.55795   0.56868   0.62192   0.62725
     Eigenvalues ---    0.82502   1.27612   1.73596   1.84490  16.28012
 RFO step:  Lambda=-4.39986222D-06 EMin= 2.49668790D-02
 Quartic linear search produced a step of  0.20955.
 Variable       Old X    -DE/DX   Delta X   Delta X   Delta X     New X
                                 (Linear)    (Quad)   (Total)
    R2        2.62250   0.00004   0.00001   0.00012   0.00013   2.62263
    R3        2.73692   0.00009   0.00023   0.00012   0.00036   2.73727
    R4        2.60635  -0.00024  -0.00013  -0.00050  -0.00063   2.60571
    R5        2.54483   0.00003   0.00005   0.00002   0.00007   2.54490
    R6        2.03250  -0.00003  -0.00003  -0.00010  -0.00013   2.03237
    R7        2.05154  -0.00002  -0.00006  -0.00002  -0.00008   2.05145
    R8        2.67880  -0.00003   0.00033  -0.00040  -0.00007   2.67872
    R9        2.58605   0.00012   0.00024   0.00013   0.00037   2.58643
   R10        1.89910   0.00002   0.00002   0.00004   0.00007   1.89917
   R11        2.74502   0.00007  -0.00028   0.00048   0.00020   2.74521
   R12        2.04636   0.00002  -0.00002   0.00009   0.00007   2.04642
   R13        2.03766   0.00001   0.00016  -0.00007   0.00009   2.03774
   R14        2.03523  -0.00005   0.00011  -0.00028  -0.00017   2.03507
   R15        2.48981  -0.00006  -0.00030   0.00012  -0.00018   2.48963
   R16        2.05226  -0.00001   0.00019  -0.00019   0.00000   2.05226
   R17        2.19284   0.00032   0.00026   0.00010   0.00036   2.19320
    A3        2.33336  -0.00007  -0.00005  -0.00017  -0.00023   2.33313
    A4        1.85541   0.00007   0.00008   0.00041   0.00049   1.85590
    A5        2.26559   0.00001  -0.00006   0.00016   0.00010   2.26569
    A6        2.19590  -0.00001  -0.00014   0.00015   0.00001   2.19591
    A7        2.00213  -0.00001   0.00004  -0.00013  -0.00010   2.00203
    A8        1.88380  -0.00006  -0.00016  -0.00010  -0.00027   1.88354
    A9        1.93317  -0.00029   0.00022  -0.00057  -0.00035   1.93282
   A10        2.15755  -0.00022  -0.00061  -0.00032  -0.00093   2.15662
   A11        2.29173   0.00013   0.00012   0.00063   0.00076   2.29249
   A12        2.02876  -0.00006  -0.00002  -0.00057  -0.00059   2.02817
   A13        2.20767  -0.00006  -0.00018  -0.00013  -0.00031   2.20735
   A14        2.11759  -0.00008  -0.00001  -0.00044  -0.00045   2.11713
   A15        2.24852  -0.00033  -0.00032  -0.00063  -0.00095   2.24757
   A16        2.06184  -0.00015   0.00002  -0.00015  -0.00013   2.06170
   A17        3.09483   0.00043   0.00061   0.00175   0.00236   3.09719
    D4        3.05144   0.00056  -0.00076   0.00055  -0.00022   3.05122
    D5       -0.46711  -0.00018  -0.00005  -0.00048  -0.00053  -0.46765
    D6        0.02664   0.00042   0.00028   0.00053   0.00081   0.02745
    D7        3.11464  -0.00009  -0.00049  -0.00154  -0.00203   3.11261
    D8       -3.08641   0.00039   0.00028   0.00125   0.00153  -3.08488
    D9        0.01004   0.00053  -0.00010  -0.00036  -0.00045   0.00959
   D10        3.11648   0.00020   0.00090   0.00245   0.00335   3.11983
   D11       -0.09631  -0.00026  -0.00009  -0.00178  -0.00187  -0.09818
   D12       -3.13238  -0.00008  -0.00025  -0.00018  -0.00043  -3.13281
   D13        3.12795  -0.00007  -0.00043  -0.00334  -0.00378   3.12418
   D14        3.14142  -0.00002   0.00098   0.00043   0.00141   3.14283
   D15       -0.32144  -0.00013  -0.00004  -0.00126  -0.00129  -0.32274
   D16       -3.02325  -0.00003   0.00004   0.00040   0.00044  -3.02281
   D17        3.09151   0.00000   0.00003   0.00030   0.00033   3.09185
         Item               Value     Threshold  Converged?
 Maximum Force            0.000558     0.000450     NO 
 RMS     Force            0.000200     0.000300     YES
 Maximum Displacement     0.003775     0.001800     NO 
 RMS     Displacement     0.001063     0.001200     YES
 Predicted change in Energy=-2.213862D-06
 GradGradGradGradGradGradGradGradGradGradGradGradGradGradGradGradGradGrad

 ---------------------------------------------------------------------------------------------------
                            Z-MATRIX (ANGSTROMS AND DEGREES)
   CD    Cent   Atom    N1       Length/X        N2       Alpha/Y        N3        Beta/Z          J
 ---------------------------------------------------------------------------------------------------
      1      1  C 
      2      2  C        1   1.387837(     1)
      3      3  C        1   1.448502(     2)      2  133.679(    17)
      4      4  N        1   1.378885(     3)      2  106.335(    18)      3  174.822(    32)      0
      5      5  C        3   1.346702(     4)      1  129.814(    19)      2  -26.794(    33)      0
      6      6  H        2   1.075484(     5)      1  125.817(    20)      3    1.573(    34)      0
      7      7  H        3   1.085582(     6)      1  114.708(    21)      5  178.339(    35)      0
      8      8  C        2   1.417519(     7)      1  107.919(    22)      6 -176.751(    36)      0
      9      9  C        4   1.368678(     8)      1  110.742(    23)      2    0.549(    37)      0
     10     10  H        4   1.004997(     9)      1  123.565(    24)      9  178.753(    38)      0
     11     11  C        5   1.452704(    10)      3  131.350(    25)      1   -5.626(    39)      0
     12     12  H        5   1.082920(    11)      3  116.205(    26)     11 -179.497(    40)      0
     13     13  H        8   1.078327(    12)      2  126.472(    27)      1  179.002(    41)      0
     14     14  H        9   1.076911(    13)      4  121.303(    28)      1  180.071(    42)      0
     15     15  C       11   1.317454(    14)      5  128.776(    29)      3  -18.491(    43)      0
     16     16  H       11   1.086012(    15)      5  118.127(    30)     15 -173.194(    44)      0
     17     17  O       15   1.160591(    16)     11  177.456(    31)      5  177.150(    45)      0
 ---------------------------------------------------------------------------------------------------
                         Z-Matrix orientation:                         
 ---------------------------------------------------------------------
 Center     Atomic      Atomic             Coordinates (Angstroms)
 Number     Number       Type             X           Y           Z
 ---------------------------------------------------------------------
      1          6           0        0.000000    0.000000    0.000000
      2          6           0        0.000000    0.000000    1.387837
      3          6           0        1.047591    0.000000   -1.000355
      4          7           0       -1.317822   -0.119422   -0.387824
      5          6           0        2.308914    0.466308   -0.928067
      6          1           0        0.871776    0.023940    2.017202
      7          1           0        0.776966   -0.469888   -1.940810
      8          6           0       -1.343987   -0.113387    1.823959
      9          6           0       -2.140715   -0.181670    0.704079
     10          1           0       -1.615234   -0.136134   -1.347660
     11          6           0        3.000008    1.207304    0.112924
     12          1           0        2.939423    0.275133   -1.787501
     13          1           0       -1.684654   -0.157283    2.846118
     14          1           0       -3.207856   -0.277616    0.595723
     15          6           0        2.489265    1.896296    1.112983
     16          1           0        4.078122    1.313202    0.036265
     17          8           0        2.087240    2.512604    2.010486
 ---------------------------------------------------------------------
                    Distance matrix (angstroms):
                    1          2          3          4          5
     1  C    0.000000
     2  C    1.387837   0.000000
     3  C    1.448502   2.607855   0.000000
     4  N    1.378885   2.214472   2.446351   0.000000
     5  C    2.531766   3.303323   1.346702   3.713241   0.000000
     6  H    2.197651   1.075484   3.022769   3.255617   3.306912
     7  H    2.142712   3.450270   1.085582   2.631108   2.061305
     8  C    2.268476   1.417519   3.702601   2.211946   4.610139
     9  C    2.260839   2.254593   3.619861   1.368678   4.783615
    10  H    2.108009   3.179695   2.688827   1.004997   3.992235
    11  C    3.235798   3.476066   2.551256   4.544734   1.452704
    12  H    3.451241   4.335744   2.067444   4.498766   1.082920
    13  H    3.311070   2.233692   4.720726   3.254901   5.530093
    14  H    3.274492   3.315850   4.553391   2.136498   5.771492
    15  C    3.321311   3.141325   3.184425   4.561738   2.498655
    16  H    4.284495   4.492475   3.461676   5.598971   2.185695
    17  O    3.835597   3.325273   4.056996   4.926855   3.587695
                    6          7          8          9         10
     6  H    0.000000
     7  H    3.989826   0.000000
     8  C    2.228409   4.335784   0.000000
     9  C    3.292669   3.948591   1.376070   0.000000
    10  H    4.187259   2.487135   3.183279   2.118452   0.000000
    11  C    3.091278   3.460161   4.852027   5.357775   5.023803
    12  H    4.337514   2.292331   5.616155   5.676657   4.594290
    13  H    2.693562   5.391843   1.078327   2.190187   4.194407
    14  H    4.330697   4.727555   2.238201   1.076911   2.516585
    15  C    2.634312   4.225689   4.386130   5.091352   5.199274
    16  H    3.983336   4.240975   5.884750   6.430751   6.035738
    17  O    2.769629   5.121017   4.324805   5.180870   5.656967
                   11         12         13         14         15
    11  C    0.000000
    12  H    2.117600   0.000000
    13  H    5.592719   6.560449   0.000000
    14  H    6.401224   6.616217   2.720093   0.000000
    15  C    1.317454   3.353150   4.964126   6.119693   0.000000
    16  H    1.086012   2.387539   6.577780   7.478582   2.005938
    17  O    2.477436   4.489676   4.696143   6.150198   1.160591
                   16         17
    16  H    0.000000
    17  O    3.049545   0.000000
 Symmetry turned off by external request.
 Stoichiometry    C8H7NO
 Framework group  C1[X(C8H7NO)]
 Deg. of freedom    45
 Full point group                 C1      NOp   1
 Rotational constants (GHZ):           2.4009458           0.9823641           0.7353539
 Standard basis: def2TZVP (5D, 7F)
 The following finite field(s) will be applied:
 An electric field of             -0.0063  0.0013  0.0038
   352 basis functions,   566 primitive gaussians,   402 cartesian basis functions
    35 alpha electrons       35 beta electrons
       nuclear repulsion energy       460.5339270099 Hartrees.
 NAtoms=   17 NActive=   17 NUniq=   17 SFac= 1.00D+00 NAtFMM=   60 NAOKFM=F Big=F
 Integral buffers will be    131072 words long.
 Raffenetti 2 integral format.
 Two-electron integral symmetry is turned off.
 One-electron integrals computed using PRISM.
   1 Symmetry operations used in ECPInt.
 ECPInt:  NShTT=    9591 NPrTT=   29644 LenC2=    9224 LenP2D=   22152.
 LDataN:  DoStor=T MaxTD1= 6 Len=  172
 NBasis=   352 RedAO= T EigKep=  3.35D-05  NBF=   352
 NBsUse=   352 1.00D-06 EigRej= -1.00D+00 NBFU=   352
 The nuclear repulsion energy is now       460.3673789860 hartrees.
 Initial guess from the checkpoint file:  "checkpoint.chk"
 B after Tr=     0.000950   -0.000955   -0.001073
         Rot=    0.999999    0.000919    0.000082   -0.000726 Ang=   0.13 deg.
 Requested convergence on RMS density matrix=1.00D-08 within 128 cycles.
 Requested convergence on MAX density matrix=1.00D-06.
 Requested convergence on             energy=1.00D-06.
 No special actions if energy rises.
 SCF Done:  E(RB3LYP) =  -439.160814651     A.U. after    9 cycles
            NFock=  9  Conv=0.60D-08     -V/T= 2.0050
   1 Symmetry operations used in ECPInt.
 ECPInt:  NShTT=    9591 NPrTT=   29644 LenC2=    9224 LenP2D=   22152.
 LDataN:  DoStor=T MaxTD1= 7 Len=  274
 Calling FoFJK, ICntrl=      2127 FMM=F ISym2X=0 I1Cent= 0 IOpClX= 0 NMat=1 NMatS=1 NMatT=0.
 -------------------------------------------------------------------
 Center     Atomic                   Forces (Hartrees/Bohr)
 Number     Number              X              Y              Z
 -------------------------------------------------------------------
      1        6           0.002121411   -0.000768677   -0.000000093
      2        6          -0.002120077    0.000277057   -0.000029537
      3        6           0.000079662    0.000392773    0.000042130
      4        7           0.000014679    0.000211658    0.000050191
      5        6          -0.000104912   -0.000020666   -0.000039716
      6        1           0.000037462    0.000008501    0.000003264
      7        1           0.000006708   -0.000031830   -0.000001768
      8        6           0.000013939    0.000125124   -0.000055879
      9        6          -0.000053006   -0.000207167    0.000019241
     10        1          -0.000011437   -0.000057331    0.000023147
     11        6           0.000139171    0.000048731    0.000057016
     12        1           0.000009595    0.000001107   -0.000006470
     13        1          -0.000011029    0.000092383   -0.000021413
     14        1          -0.000011911   -0.000001414    0.000001575
     15        6          -0.000011745    0.000017048    0.000077234
     16        1          -0.000035768   -0.000051750   -0.000028872
     17        8          -0.000062743   -0.000035547   -0.000090050
 -------------------------------------------------------------------
 Cartesian Forces:  Max     0.002121411 RMS     0.000443184
 -----------------------------------------------------------------------------------------------
                       Internal Coordinate Forces (Hartree/Bohr or radian)
  Cent   Atom   N1       Length/X         N2         Alpha/Y        N3         Beta/Z          J
 -----------------------------------------------------------------------------------------------
      1  C 
      2  C        1  -0.000104(     1)
      3  C        1   0.000008(     2)      2  -0.000240(    17)
      4  N        1   0.000037(     3)      2  -0.000193(    18)      3  -0.000470(    32)     0
      5  C        3  -0.000078(     4)      1  -0.000159(    19)      2  -0.000060(    33)     0
      6  H        2   0.000032(     5)      1  -0.000039(    20)      3  -0.000600(    34)     0
      7  H        3   0.000014(     6)      1   0.000001(    21)      5  -0.000055(    35)     0
      8  C        2  -0.000044(     7)      1  -0.000200(    22)      6  -0.000612(    36)     0
      9  C        4   0.000065(     8)      1   0.000136(    23)      2  -0.000401(    37)     0
     10  H        4  -0.000018(     9)      1   0.000044(    24)      9   0.000088(    38)     0
     11  C        5   0.000014(    10)      3  -0.000222(    25)      1  -0.000052(    39)     0
     12  H        5   0.000011(    11)      3   0.000010(    26)     11   0.000001(    40)     0
     13  H        8  -0.000021(    12)      2   0.000022(    27)      1   0.000152(    41)     0
     14  H        9   0.000012(    13)      4   0.000006(    28)      1   0.000001(    42)     0
     15  C       11   0.000009(    14)      5  -0.000391(    29)      3  -0.000070(    43)     0
     16  H       11  -0.000039(    15)      5  -0.000107(    30)     15  -0.000044(    44)     0
     17  O       15  -0.000067(    16)     11   0.000202(    31)      5   0.000002(    45)     0
 -----------------------------------------------------------------------------------------------
 Internal  Forces:  Max     0.000612180 RMS     0.000190563

 GradGradGradGradGradGradGradGradGradGradGradGradGradGradGradGradGradGrad
 Berny optimization.
 Search for a local minimum.
 Step number   3 out of a maximum of   55
 All quantities printed in internal units (Hartrees-Bohrs-Radians)
 Update second derivatives using D2CorN and points    1    2    3
 DE= -2.10D-06 DEPred=-2.21D-06 R= 9.48D-01
 TightC=F SS=  1.41D+00  RLast= 7.13D-03 DXNew= 1.6818D-01 2.1386D-02
 Trust test= 9.48D-01 RLast= 7.13D-03 DXMaxT set to 1.00D-01
 ITU=  1  1  0
     Eigenvalues ---    0.02464   0.02742   0.03361   0.04209   0.06393
     Eigenvalues ---    0.08582   0.09352   0.09650   0.14054   0.16662
     Eigenvalues ---    0.18323   0.19568   0.20636   0.21165   0.21946
     Eigenvalues ---    0.23385   0.24485   0.27195   0.27588   0.28061
     Eigenvalues ---    0.29583   0.35303   0.35367   0.35643   0.36251
     Eigenvalues ---    0.36429   0.36532   0.37934   0.38409   0.40447
     Eigenvalues ---    0.44531   0.46840   0.48603   0.50730   0.53725
     Eigenvalues ---    0.55366   0.55787   0.56881   0.62160   0.62726
     Eigenvalues ---    0.82646   1.27605   1.74780   1.84586  16.28027
 RFO step:  Lambda=-3.10333786D-06 EMin= 2.46373143D-02
 Quartic linear search produced a step of -0.10493.
 Variable       Old X    -DE/DX   Delta X   Delta X   Delta X     New X
                                 (Linear)    (Quad)   (Total)
    R2        2.62263  -0.00010  -0.00001  -0.00008  -0.00010   2.62254
    R3        2.73727   0.00001  -0.00004   0.00018   0.00015   2.73742
    R4        2.60571   0.00004   0.00007  -0.00019  -0.00012   2.60559
    R5        2.54490  -0.00008  -0.00001  -0.00015  -0.00016   2.54474
    R6        2.03237   0.00003   0.00001   0.00006   0.00007   2.03244
    R7        2.05145   0.00001   0.00001   0.00001   0.00002   2.05147
    R8        2.67872  -0.00004   0.00001  -0.00000   0.00000   2.67873
    R9        2.58643   0.00007  -0.00004   0.00017   0.00013   2.58655
   R10        1.89917  -0.00002  -0.00001  -0.00002  -0.00003   1.89914
   R11        2.74521   0.00001  -0.00002   0.00010   0.00008   2.74530
   R12        2.04642   0.00001  -0.00001   0.00006   0.00006   2.04648
   R13        2.03774  -0.00002  -0.00001  -0.00003  -0.00003   2.03771
   R14        2.03507   0.00001   0.00002  -0.00002   0.00000   2.03507
   R15        2.48963   0.00001   0.00002  -0.00007  -0.00005   2.48958
   R16        2.05226  -0.00004  -0.00000  -0.00013  -0.00013   2.05213
   R17        2.19320  -0.00007  -0.00004   0.00007   0.00003   2.19323
    A3        2.33313  -0.00024   0.00002  -0.00030  -0.00027   2.33286
    A4        1.85590  -0.00019  -0.00005   0.00002  -0.00003   1.85587
    A5        2.26569  -0.00016  -0.00001  -0.00015  -0.00016   2.26552
    A6        2.19591  -0.00004  -0.00000  -0.00010  -0.00010   2.19581
    A7        2.00203   0.00000   0.00001   0.00004   0.00005   2.00208
    A8        1.88354  -0.00020   0.00003  -0.00011  -0.00008   1.88345
    A9        1.93282   0.00014   0.00004   0.00016   0.00020   1.93301
   A10        2.15662   0.00004   0.00010  -0.00035  -0.00026   2.15637
   A11        2.29249  -0.00022  -0.00008  -0.00017  -0.00025   2.29224
   A12        2.02817   0.00001   0.00006  -0.00004   0.00002   2.02819
   A13        2.20735   0.00002   0.00003  -0.00018  -0.00015   2.20720
   A14        2.11713   0.00001   0.00005  -0.00001   0.00004   2.11717
   A15        2.24757  -0.00039   0.00010  -0.00141  -0.00131   2.24626
   A16        2.06170  -0.00011   0.00001  -0.00004  -0.00002   2.06168
   A17        3.09719   0.00020  -0.00025   0.00195   0.00170   3.09889
    D4        3.05122  -0.00047   0.00002  -0.00085  -0.00083   3.05039
    D5       -0.46765  -0.00006   0.00006   0.00007   0.00012  -0.46753
    D6        0.02745  -0.00060  -0.00009   0.00068   0.00059   0.02805
    D7        3.11261  -0.00006   0.00021  -0.00226  -0.00205   3.11056
    D8       -3.08488  -0.00061  -0.00016  -0.00127  -0.00143  -3.08631
    D9        0.00959  -0.00040   0.00005  -0.00103  -0.00098   0.00861
   D10        3.11983   0.00009  -0.00035   0.00481   0.00446   3.12428
   D11       -0.09818  -0.00005   0.00020  -0.00135  -0.00115  -0.09934
   D12       -3.13281   0.00000   0.00004  -0.00032  -0.00027  -3.13308
   D13        3.12418   0.00015   0.00040   0.00149   0.00188   3.12606
   D14        3.14283   0.00000  -0.00015   0.00308   0.00294   3.14576
   D15       -0.32274  -0.00007   0.00014  -0.00171  -0.00157  -0.32431
   D16       -3.02281  -0.00004  -0.00005   0.00072   0.00068  -3.02213
   D17        3.09185   0.00000  -0.00004   0.00061   0.00057   3.09242
         Item               Value     Threshold  Converged?
 Maximum Force            0.000612     0.000450     NO 
 RMS     Force            0.000191     0.000300     YES
 Maximum Displacement     0.004457     0.001800     NO 
 RMS     Displacement     0.001054     0.001200     YES
 Predicted change in Energy=-1.730602D-06
 GradGradGradGradGradGradGradGradGradGradGradGradGradGradGradGradGradGrad

 ---------------------------------------------------------------------------------------------------
                            Z-MATRIX (ANGSTROMS AND DEGREES)
   CD    Cent   Atom    N1       Length/X        N2       Alpha/Y        N3        Beta/Z          J
 ---------------------------------------------------------------------------------------------------
      1      1  C 
      2      2  C        1   1.387786(     1)
      3      3  C        1   1.448580(     2)      2  133.663(    17)
      4      4  N        1   1.378821(     3)      2  106.334(    18)      3  174.774(    32)      0
      5      5  C        3   1.346618(     4)      1  129.805(    19)      2  -26.787(    33)      0
      6      6  H        2   1.075522(     5)      1  125.811(    20)      3    1.607(    34)      0
      7      7  H        3   1.085593(     6)      1  114.711(    21)      5  178.222(    35)      0
      8      8  C        2   1.417522(     7)      1  107.914(    22)      6 -176.833(    36)      0
      9      9  C        4   1.368745(     8)      1  110.753(    23)      2    0.493(    37)      0
     10     10  H        4   1.004982(     9)      1  123.551(    24)      9  179.008(    38)      0
     11     11  C        5   1.452749(    10)      3  131.335(    25)      1   -5.691(    39)      0
     12     12  H        5   1.082950(    11)      3  116.207(    26)     11 -179.512(    40)      0
     13     13  H        8   1.078309(    12)      2  126.463(    27)      1  179.110(    41)      0
     14     14  H        9   1.076911(    13)      4  121.305(    28)      1  180.239(    42)      0
     15     15  C       11   1.317428(    14)      5  128.701(    29)      3  -18.581(    43)      0
     16     16  H       11   1.085942(    15)      5  118.126(    30)     15 -173.155(    44)      0
     17     17  O       15   1.160606(    16)     11  177.554(    31)      5  177.183(    45)      0
 ---------------------------------------------------------------------------------------------------
                         Z-Matrix orientation:                         
 ---------------------------------------------------------------------
 Center     Atomic      Atomic             Coordinates (Angstroms)
 Number     Number       Type             X           Y           Z
 ---------------------------------------------------------------------
      1          6           0        0.000000    0.000000    0.000000
      2          6           0        0.000000    0.000000    1.387786
      3          6           0        1.047920    0.000000   -1.000123
      4          7           0       -1.317673   -0.120511   -0.387767
      5          6           0        2.309149    0.466231   -0.927245
      6          1           0        0.871855    0.024461    2.017086
      7          1           0        0.778225   -0.471555   -1.940024
      8          6           0       -1.344120   -0.112266    1.823797
      9          6           0       -2.140622   -0.184716    0.704064
     10          1           0       -1.614579   -0.140344   -1.347685
     11          6           0        2.999178    1.208159    0.113851
     12          1           0        2.940455    0.273969   -1.785889
     13          1           0       -1.684876   -0.154244    2.845987
     14          1           0       -3.207408   -0.284431    0.595603
     15          6           0        2.485793    1.898916    1.111303
     16          1           0        4.077403    1.313262    0.038648
     17          8           0        2.079531    2.516493    2.006040
 ---------------------------------------------------------------------
                    Distance matrix (angstroms):
                    1          2          3          4          5
     1  C    0.000000
     2  C    1.387786   0.000000
     3  C    1.448580   2.607729   0.000000
     4  N    1.378821   2.214356   2.446535   0.000000
     5  C    2.531664   3.302864   1.346618   3.713373   0.000000
     6  H    2.197582   1.075522   3.022441   3.255514   3.306064
     7  H    2.142823   3.449974   1.085593   2.631639   2.061284
     8  C    2.268369   1.417522   3.702565   2.211737   4.609693
     9  C    2.260993   2.254742   3.620108   1.368745   4.783865
    10  H    2.107799   3.179523   2.688754   1.004982   3.992535
    11  C    3.235379   3.475288   2.551077   4.544467   1.452749
    12  H    3.451193   4.335152   2.067407   4.499112   1.082950
    13  H    3.310928   2.233595   4.720650   3.254710   5.529422
    14  H    3.274616   3.316010   4.553577   2.136582   5.771911
    15  C    3.319645   3.140301   3.182998   4.559786   2.497892
    16  H    4.283849   4.491107   3.461425   5.598605   2.185666
    17  O    3.831630   3.322563   4.053884   4.921900   3.586148
                    6          7          8          9         10
     6  H    0.000000
     7  H    3.989175   0.000000
     8  C    2.228588   4.335872   0.000000
     9  C    3.292841   3.948816   1.376032   0.000000
    10  H    4.187028   2.487182   3.183117   2.118577   0.000000
    11  C    3.090137   3.460126   4.850946   5.357798   5.024072
    12  H    4.336355   2.292335   5.615745   5.676936   4.594780
    13  H    2.693675   5.391980   1.078309   2.190084   4.194285
    14  H    4.330868   4.727546   2.238289   1.076911   2.516791
    15  C    2.634164   4.224395   4.384146   5.090293   5.197908
    16  H    3.981301   4.240906   5.883179   6.430440   6.036020
    17  O    2.769265   5.117934   4.320299   5.177004   5.652672
                   11         12         13         14         15
    11  C    0.000000
    12  H    2.117823   0.000000
    13  H    5.591160   6.559826   0.000000
    14  H    6.401688   6.616610   2.720162   0.000000
    15  C    1.317428   3.352743   4.961761   6.119272   0.000000
    16  H    1.085942   2.387827   6.575605   7.478722   2.006688
    17  O    2.477472   4.488745   4.691387   6.147051   1.160606
                   16         17
    16  H    0.000000
    17  O    3.051210   0.000000
 Symmetry turned off by external request.
 Stoichiometry    C8H7NO
 Framework group  C1[X(C8H7NO)]
 Deg. of freedom    45
 Full point group                 C1      NOp   1
 Rotational constants (GHZ):           2.4015196           0.9830280           0.7359194
 Standard basis: def2TZVP (5D, 7F)
 The following finite field(s) will be applied:
 An electric field of             -0.0063  0.0013  0.0038
   352 basis functions,   566 primitive gaussians,   402 cartesian basis functions
    35 alpha electrons       35 beta electrons
       nuclear repulsion energy       460.5943020442 Hartrees.
 NAtoms=   17 NActive=   17 NUniq=   17 SFac= 1.00D+00 NAtFMM=   60 NAOKFM=F Big=F
 Integral buffers will be    131072 words long.
 Raffenetti 2 integral format.
 Two-electron integral symmetry is turned off.
 One-electron integrals computed using PRISM.
   1 Symmetry operations used in ECPInt.
 ECPInt:  NShTT=    9591 NPrTT=   29644 LenC2=    9224 LenP2D=   22153.
 LDataN:  DoStor=T MaxTD1= 6 Len=  172
 NBasis=   352 RedAO= T EigKep=  3.36D-05  NBF=   352
 NBsUse=   352 1.00D-06 EigRej= -1.00D+00 NBFU=   352
 The nuclear repulsion energy is now       460.4285626763 hartrees.
 Initial guess from the checkpoint file:  "checkpoint.chk"
 B after Tr=    -0.000494   -0.002015    0.000173
         Rot=    1.000000    0.000760    0.000280   -0.000556 Ang=   0.11 deg.
 Requested convergence on RMS density matrix=1.00D-08 within 128 cycles.
 Requested convergence on MAX density matrix=1.00D-06.
 Requested convergence on             energy=1.00D-06.
 No special actions if energy rises.
 SCF Done:  E(RB3LYP) =  -439.160815471     A.U. after    9 cycles
            NFock=  9  Conv=0.76D-08     -V/T= 2.0050
   1 Symmetry operations used in ECPInt.
 ECPInt:  NShTT=    9591 NPrTT=   29644 LenC2=    9224 LenP2D=   22153.
 LDataN:  DoStor=T MaxTD1= 7 Len=  274
 Calling FoFJK, ICntrl=      2127 FMM=F ISym2X=0 I1Cent= 0 IOpClX= 0 NMat=1 NMatS=1 NMatT=0.
 -------------------------------------------------------------------
 Center     Atomic                   Forces (Hartrees/Bohr)
 Number     Number              X              Y              Z
 -------------------------------------------------------------------
      1        6           0.002151065   -0.000838895    0.000002075
      2        6          -0.002151225    0.000584650   -0.000007765
      3        6           0.000005088    0.000267831    0.000068227
      4        7          -0.000010551   -0.000032698   -0.000023052
      5        6          -0.000062332   -0.000026882   -0.000069033
      6        1          -0.000007865    0.000066239    0.000002642
      7        1          -0.000005212    0.000010291   -0.000016470
      8        6           0.000050884   -0.000272117    0.000046839
      9        6           0.000020566    0.000135967   -0.000061533
     10        1          -0.000039899   -0.000066700    0.000014148
     11        6           0.000159410    0.000060910    0.000037047
     12        1           0.000009752    0.000023959    0.000009298
     13        1          -0.000011274    0.000005344   -0.000003886
     14        1          -0.000014554    0.000105595    0.000008414
     15        6          -0.000112854    0.000056216    0.000084227
     16        1          -0.000021470   -0.000031930    0.000007438
     17        8           0.000040471   -0.000047779   -0.000098616
 -------------------------------------------------------------------
 Cartesian Forces:  Max     0.002151225 RMS     0.000455503
 -----------------------------------------------------------------------------------------------
                       Internal Coordinate Forces (Hartree/Bohr or radian)
  Cent   Atom   N1       Length/X         N2         Alpha/Y        N3         Beta/Z          J
 -----------------------------------------------------------------------------------------------
      1  C 
      2  C        1   0.000038(     1)
      3  C        1  -0.000006(     2)      2  -0.000102(    17)
      4  N        1   0.000047(     3)      2   0.000048(    18)      3   0.000919(    32)     0
      5  C        3   0.000022(     4)      1  -0.000024(    19)      2  -0.000092(    33)     0
      6  H        2  -0.000003(     5)      1   0.000011(    20)      3   0.000791(    34)     0
      7  H        3   0.000011(     6)      1   0.000007(    21)      5   0.000031(    35)     0
      8  C        2  -0.000003(     7)      1   0.000100(    22)      6   0.000682(    36)     0
      9  C        4  -0.000057(     8)      1   0.000003(    23)      2   0.000720(    37)     0
     10  H        4  -0.000000(     9)      1   0.000092(    24)      9   0.000099(    38)     0
     11  C        5   0.000072(    10)      3  -0.000027(    25)      1  -0.000100(    39)     0
     12  H        5  -0.000006(    11)      3   0.000047(    26)     11   0.000026(    40)     0
     13  H        8  -0.000000(    12)      2   0.000023(    27)      1   0.000010(    41)     0
     14  H        9   0.000004(    13)      4   0.000020(    28)      1  -0.000185(    42)     0
     15  C       11   0.000022(    14)      5  -0.000172(    29)      3  -0.000110(    43)     0
     16  H       11  -0.000025(    15)      5  -0.000022(    30)     15  -0.000051(    44)     0
     17  O       15  -0.000116(    16)     11   0.000001(    31)      5   0.000002(    45)     0
 -----------------------------------------------------------------------------------------------
 Internal  Forces:  Max     0.000918737 RMS     0.000241567

 GradGradGradGradGradGradGradGradGradGradGradGradGradGradGradGradGradGrad
 Berny optimization.
 Search for a local minimum.
 Step number   4 out of a maximum of   55
 All quantities printed in internal units (Hartrees-Bohrs-Radians)
 Update second derivatives using D2CorN and points    1    2    3    4
 DE= -8.20D-07 DEPred=-1.73D-06 R= 4.74D-01
 Trust test= 4.74D-01 RLast= 7.07D-03 DXMaxT set to 1.00D-01
 ITU=  0  1  1  0
     Eigenvalues ---    0.01914   0.02814   0.03338   0.04244   0.06344
     Eigenvalues ---    0.08619   0.09557   0.09708   0.14586   0.16385
     Eigenvalues ---    0.18371   0.19654   0.20638   0.21188   0.21986
     Eigenvalues ---    0.23427   0.24447   0.27151   0.27622   0.28075
     Eigenvalues ---    0.29603   0.35304   0.35370   0.35643   0.36251
     Eigenvalues ---    0.36431   0.36532   0.37971   0.38401   0.40404
     Eigenvalues ---    0.44552   0.46840   0.48600   0.50725   0.53737
     Eigenvalues ---    0.55219   0.55788   0.56870   0.62171   0.62723
     Eigenvalues ---    0.82597   1.27623   1.76992   1.84832  16.28025
 RFO step:  Lambda=-1.59563476D-06 EMin= 1.91442600D-02
 Quartic linear search produced a step of -0.33554.
 Variable       Old X    -DE/DX   Delta X   Delta X   Delta X     New X
                                 (Linear)    (Quad)   (Total)
    R2        2.62254   0.00004   0.00003  -0.00002   0.00001   2.62254
    R3        2.73742  -0.00001  -0.00005   0.00012   0.00007   2.73749
    R4        2.60559   0.00005   0.00004  -0.00001   0.00003   2.60562
    R5        2.54474   0.00002   0.00005  -0.00004   0.00002   2.54475
    R6        2.03244  -0.00000  -0.00002   0.00002  -0.00000   2.03244
    R7        2.05147   0.00001  -0.00001   0.00003   0.00003   2.05150
    R8        2.67873  -0.00000  -0.00000   0.00002   0.00002   2.67874
    R9        2.58655  -0.00006  -0.00004   0.00004  -0.00001   2.58655
   R10        1.89914  -0.00000   0.00001  -0.00001  -0.00000   1.89914
   R11        2.74530   0.00007  -0.00003   0.00023   0.00020   2.74549
   R12        2.04648  -0.00001  -0.00002   0.00001  -0.00001   2.04647
   R13        2.03771  -0.00000   0.00001   0.00001   0.00002   2.03773
   R14        2.03507   0.00000  -0.00000   0.00003   0.00003   2.03509
   R15        2.48958   0.00002   0.00002  -0.00003  -0.00001   2.48956
   R16        2.05213  -0.00002   0.00004  -0.00013  -0.00008   2.05205
   R17        2.19323  -0.00012  -0.00001  -0.00006  -0.00007   2.19316
    A3        2.33286  -0.00010   0.00009  -0.00022  -0.00012   2.33274
    A4        1.85587   0.00005   0.00001  -0.00000   0.00001   1.85588
    A5        2.26552  -0.00002   0.00006  -0.00008  -0.00003   2.26550
    A6        2.19581   0.00001   0.00003  -0.00008  -0.00005   2.19576
    A7        2.00208   0.00001  -0.00002   0.00005   0.00003   2.00212
    A8        1.88345   0.00010   0.00003  -0.00003   0.00000   1.88345
    A9        1.93301   0.00000  -0.00007   0.00006  -0.00001   1.93300
   A10        2.15637   0.00009   0.00009   0.00003   0.00011   2.15648
   A11        2.29224  -0.00003   0.00008  -0.00017  -0.00008   2.29215
   A12        2.02819   0.00005  -0.00001   0.00016   0.00016   2.02834
   A13        2.20720   0.00002   0.00005  -0.00001   0.00004   2.20724
   A14        2.11717   0.00002  -0.00001   0.00005   0.00004   2.11721
   A15        2.24626  -0.00017   0.00044  -0.00133  -0.00089   2.24537
   A16        2.06168  -0.00002   0.00001   0.00015   0.00015   2.06184
   A17        3.09889   0.00000  -0.00057   0.00126   0.00069   3.09958
    D4        3.05039   0.00092   0.00028   0.00073   0.00100   3.05139
    D5       -0.46753  -0.00009  -0.00004   0.00009   0.00005  -0.46747
    D6        0.02805   0.00079  -0.00020   0.00141   0.00121   0.02926
    D7        3.11056   0.00003   0.00069  -0.00165  -0.00096   3.10960
    D8       -3.08631   0.00068   0.00048  -0.00075  -0.00027  -3.08658
    D9        0.00861   0.00072   0.00033  -0.00036  -0.00003   0.00857
   D10        3.12428   0.00010  -0.00150   0.00393   0.00244   3.12672
   D11       -0.09934  -0.00010   0.00039  -0.00127  -0.00088  -0.10022
   D12       -3.13308   0.00003   0.00009  -0.00012  -0.00003  -3.13311
   D13        3.12606   0.00001  -0.00063  -0.00056  -0.00119   3.12487
   D14        3.14576  -0.00018  -0.00098   0.00008  -0.00090   3.14486
   D15       -0.32431  -0.00011   0.00053  -0.00266  -0.00213  -0.32644
   D16       -3.02213  -0.00005  -0.00023   0.00115   0.00092  -3.02121
   D17        3.09242   0.00000  -0.00019   0.00095   0.00076   3.09318
         Item               Value     Threshold  Converged?
 Maximum Force            0.000919     0.000450     NO 
 RMS     Force            0.000242     0.000300     YES
 Maximum Displacement     0.002437     0.001800     NO 
 RMS     Displacement     0.000664     0.001200     YES
 Predicted change in Energy=-1.445242D-06
 GradGradGradGradGradGradGradGradGradGradGradGradGradGradGradGradGradGrad

 ---------------------------------------------------------------------------------------------------
                            Z-MATRIX (ANGSTROMS AND DEGREES)
   CD    Cent   Atom    N1       Length/X        N2       Alpha/Y        N3        Beta/Z          J
 ---------------------------------------------------------------------------------------------------
      1      1  C 
      2      2  C        1   1.387791(     1)
      3      3  C        1   1.448619(     2)      2  133.656(    17)
      4      4  N        1   1.378836(     3)      2  106.334(    18)      3  174.832(    32)      0
      5      5  C        3   1.346626(     4)      1  129.803(    19)      2  -26.784(    33)      0
      6      6  H        2   1.075521(     5)      1  125.808(    20)      3    1.676(    34)      0
      7      7  H        3   1.085608(     6)      1  114.713(    21)      5  178.167(    35)      0
      8      8  C        2   1.417530(     7)      1  107.914(    22)      6 -176.848(    36)      0
      9      9  C        4   1.368742(     8)      1  110.753(    23)      2    0.491(    37)      0
     10     10  H        4   1.004981(     9)      1  123.557(    24)      9  179.148(    38)      0
     11     11  C        5   1.452853(    10)      3  131.331(    25)      1   -5.742(    39)      0
     12     12  H        5   1.082947(    11)      3  116.215(    26)     11 -179.514(    40)      0
     13     13  H        8   1.078320(    12)      2  126.465(    27)      1  179.042(    41)      0
     14     14  H        9   1.076925(    13)      4  121.307(    28)      1  180.187(    42)      0
     15     15  C       11   1.317421(    14)      5  128.650(    29)      3  -18.704(    43)      0
     16     16  H       11   1.085899(    15)      5  118.134(    30)     15 -173.103(    44)      0
     17     17  O       15   1.160568(    16)     11  177.593(    31)      5  177.226(    45)      0
 ---------------------------------------------------------------------------------------------------
                         Z-Matrix orientation:                         
 ---------------------------------------------------------------------
 Center     Atomic      Atomic             Coordinates (Angstroms)
 Number     Number       Type             X           Y           Z
 ---------------------------------------------------------------------
      1          6           0        0.000000    0.000000    0.000000
      2          6           0        0.000000    0.000000    1.387791
      3          6           0        1.048072    0.000000   -1.000021
      4          7           0       -1.317804   -0.119189   -0.387781
      5          6           0        2.309309    0.466197   -0.926935
      6          1           0        0.871856    0.025516    2.017046
      7          1           0        0.778818   -0.472344   -1.939669
      8          6           0       -1.344021   -0.113531    1.823807
      9          6           0       -2.140810   -0.182609    0.704049
     10          1           0       -1.614643   -0.140740   -1.347682
     11          6           0        2.998872    1.208938    0.114036
     12          1           0        2.941125    0.273270   -1.785051
     13          1           0       -1.684694   -0.156859    2.845980
     14          1           0       -3.207787   -0.280432    0.595622
     15          6           0        2.483887    1.901986    1.109061
     16          1           0        4.077236    1.313044    0.040074
     17          8           0        2.075452    2.521439    2.001460
 ---------------------------------------------------------------------
                    Distance matrix (angstroms):
                    1          2          3          4          5
     1  C    0.000000
     2  C    1.387791   0.000000
     3  C    1.448619   2.607700   0.000000
     4  N    1.378836   2.214378   2.446715   0.000000
     5  C    2.531691   3.302757   1.346626   3.713397   0.000000
[...]

 ----------------------------------------------------------------------
 1\1\GINC-BHC0034\Freq\RB3LYP\def2TZVP\C8H7N1O1\DHANAWAY\10-Jun-2022\1\
 \#N Geom=AllCheck Guess=TCheck SCRF=Check GenChk RB3LYP/def2TZVP Freq\
 \int_zmat_initalOpt\\0,1\C\C,1,R2\C,1,R3,2,A3\N,1,R4,2,A4,3,D4,0\C,3,R
 5,1,A5,2,D5,0\H,2,R6,1,A6,3,D6,0\H,3,R7,1,A7,5,D7,0\C,2,R8,1,A8,6,D8,0
 \C,4,R9,1,A9,2,D9,0\H,4,R10,1,A10,9,D10,0\C,5,R11,3,A11,1,D11,0\H,5,R1
 2,3,A12,11,D12,0\H,8,R13,2,A13,1,D13,0\H,9,R14,4,A14,1,D14,0\C,11,R15,
 5,A15,3,D15,0\H,11,R16,5,A16,15,D16,0\O,15,R17,11,A17,5,D17,0\\R2=1.38
 779416\R3=1.4486247\R4=1.37883768\R5=1.34659848\R6=1.07551997\R7=1.085
 62112\R8=1.41747539\R9=1.36871656\R10=1.00498396\R11=1.45300588\R12=1.
 08295123\R13=1.07831185\R14=1.07691013\R15=1.3174331\R16=1.08584387\R1
 7=1.16053661\A3=133.64886248\A4=106.33836755\A5=129.79920231\A6=125.80
 862444\A7=114.71426937\A8=107.91524357\A9=110.74436608\A10=123.5765623
 4\A11=131.31569866\A12=116.22516585\A13=126.47220477\A14=121.30360577\
 A15=128.59560893\A16=118.14821946\A17=177.61877571\D4=174.82924858\D5=
 -26.81186621\D6=1.70498848\D7=178.15108925\D8=-176.93688899\D9=0.45915
 \D10=179.3407944\D11=-5.76852804\D12=-179.51209194\D13=179.16406163\D1
 4=180.20979335\D15=-18.90070631\D16=-173.02567317\D17=177.29613538\\Ve
 rsion=ES64L-G16RevA.03\HF=-439.1608167\RMSD=5.001e-09\RMSF=4.481e-04\Z
 eroPoint=0.1299206\Thermal=0.138869\Dipole=0.8432248,-0.2680842,-1.383
 4708\DipoleDeriv=0.2024544,0.0209421,0.1754505,-0.0429698,-0.0099284,0
 .0111271,0.0349117,-0.0532227,0.1466145,-0.0054242,0.0150793,-0.072572
 1,-0.0062932,-0.1821387,-0.0172472,0.0567129,-0.0014277,-0.1638568,-0.
 1839823,-0.0823059,-0.2212096,-0.0143924,-0.1727036,0.0327605,-0.22724
 65,-0.0331547,0.043777,0.0696221,0.0829327,-0.1091998,0.0758801,-0.182
 1677,-0.035688,-0.2991244,-0.0335781,-0.5351008,0.2779361,0.2665277,0.
 2100016,0.4098545,0.2383446,0.2778532,0.478411,0.4306226,0.2623622,-0.
 0058714,-0.0060724,-0.0520219,-0.0039106,0.1517857,-0.0176455,-0.03860
 45,-0.0081639,0.0635753,-0.0018256,-0.0650728,-0.0366991,-0.0546544,0.
 0878765,-0.0823271,0.0186987,-0.057121,-0.0394233,-0.0842836,-0.039609
 ,-0.0302128,0.0363255,-0.2453199,0.0047594,-0.0685614,-0.0229432,-0.00
 82625,-0.4027498,-0.0871414,0.0158775,-0.0191606,-0.2062795,0.0090921,
 0.3225761,0.1157307,0.2754915,0.2102233,0.00997,0.0433653,-0.0026521,0
 .2855849,0.0114136,0.0332395,0.0064326,0.1896456,-0.1856213,0.1727653,
 0.2212873,-0.1959698,-0.5522639,-0.2484029,-0.3428845,-0.4793093,-0.65
 82374,0.0422882,-0.0116913,0.0398194,-0.0390082,0.0863185,-0.0614239,0
 .034105,-0.0409618,0.028783,0.0292768,-0.019951,0.0799896,-0.007256,0.
 1609628,0.0039122,0.0934753,0.0170237,-0.094805,-0.1056243,-0.0289595,
 -0.0133148,-0.0455277,0.1751447,-0.0033564,-0.0202008,0.0008701,0.0613
 624,0.1357435,-0.5679412,-0.5882734,0.062524,0.99467,0.787215,0.213723
 6,1.1697774,1.3595307,0.1368702,-0.0363941,-0.03963,-0.0031191,0.16410
 31,-0.0511303,-0.0124067,-0.075727,0.1023058,-0.129032,0.3769215,0.377
 3423,-0.1496703,-0.7939891,-0.6209116,-0.2768249,-0.9348478,-1.0337621
 \Polar=139.7537626,21.6523371,76.2407864,-11.0696201,12.6977625,105.43
 86896\PG=C01 [X(C8H7N1O1)]\NImag=0\\0.63643057,0.03890795,0.15489357,-
 0.09037356,0.01459797,0.70522928,-0.10519808,-0.00176966,-0.01516221,0
 .71413886,-0.00345924,-0.06832940,0.00492035,0.03741772,0.11819494,-0.
 00428461,-0.00209357,-0.32572679,0.14218756,0.00218614,0.67532450,-0.1
 6665639,-0.01217642,0.05578108,0.00514980,0.00532164,0.01698251,0.7224
 3960,-0.00278697,-0.05765083,-0.01739301,0.00081586,0.00471175,0.00173
 327,0.19448914,0.24379363,0.08834917,-0.00720710,-0.18136956,0.0260729
 4,-0.00208598,-0.02099940,-0.02433141,0.15400277,0.54674994,-0.2580038
 9,-0.01655540,-0.04307746,-0.02490347,-0.00434126,-0.06244224,-0.04353
 413,-0.00396610,-0.00244574,0.63427909,-0.01657832,-0.06141295,-0.0092
 4883,-0.00397812,0.01229249,-0.00398914,-0.00418264,-0.00063882,0.0021
 8221,0.04655999,0.07911500,-0.04382347,-0.00737962,-0.12862276,-0.0200
 6026,-0.00089097,-0.05871194,0.02805217,0.00295921,0.01353890,0.073298
 78,0.00888104,0.92827965,-0.03809399,-0.00619783,0.02089511,0.00369027
 ,-0.00314766,-0.00948164,-0.41691009,-0.13414424,-0.02207840,0.0040490
 2,0.00080027,0.00282085,0.72946446,-0.00430290,0.00512219,0.00777798,0
 .00062425,-0.00119563,-0.00240018,-0.12480578,-0.10848644,-0.02674073,
 0.00167414,0.00202155,-0.00109819,0.16967258,0.26044803,0.02080035,0.0
 0891239,0.01221399,0.00000528,-0.00124474,-0.00008411,0.00286813,-0.02
 056223,-0.10200982,-0.00004241,-0.00072286,-0.00288779,-0.07167069,0.1
 6538230,0.50879097,0.00612733,0.00046712,0.00288079,-0.25373054,-0.008
 40005,-0.14358346,-0.00044620,0.00006153,-0.00042644,0.00100118,-0.000
 12243,0.00210315,0.00026630,0.00006773,0.00009232,0.26372717,0.0005924
 4,-0.00081902,-0.00036530,-0.00720020,-0.02522560,-0.00342609,-0.00069
 813,-0.00332382,-0.00000121,0.00018900,0.00417557,-0.00033108,0.000201
 00,0.00019809,0.00121149,0.01089705,0.02226511,-0.02442474,-0.00101639
 ,-0.00588361,-0.14117286,-0.00320322,-0.16153156,0.00026521,-0.0000005
 8,0.00098977,-0.00039699,-0.00005748,-0.00616349,-0.00011574,-0.000217
 89,-0.00091132,0.15410133,0.00351909,0.16164437,0.00673983,0.00887494,
 0.02077874,-0.00320323,-0.00007940,0.00105507,-0.06950601,-0.03289384,
 -0.05119045,0.00192080,-0.00009173,-0.00006060,-0.00785304,-0.01555344
 ,-0.02652602,0.00003349,0.00010538,0.00004395,0.07714247,-0.00348647,0
 .00193567,0.00275331,0.00022895,0.00116384,-0.00081666,-0.03087835,-0.
 08636834,-0.11307314,0.00000925,-0.00035721,0.00123454,-0.00752439,-0.
 00380954,-0.01121451,0.00005766,-0.00006219,-0.00005459,0.04238312,0.0
 8504787,-0.00462020,-0.00906699,-0.02171292,0.00282277,-0.00116637,0.0
 0124092,-0.05638526,-0.11080946,-0.25473531,-0.00207749,0.00112667,0.0
 0219084,0.00061647,-0.00160862,-0.00098962,-0.00009850,-0.00005504,0.0
 0004167,0.05602640,0.12018267,0.27243319,-0.00256411,-0.00122413,0.075
 65502,-0.26393789,-0.01535655,0.03278123,0.00430967,0.00005892,-0.0048
 6554,-0.00583539,-0.00136479,-0.02121851,-0.00263448,0.00069107,0.0020
 0168,-0.01175226,-0.00189409,0.00994190,0.00007199,-0.00068376,0.00025
 725,0.56133941,-0.00217278,0.00914921,0.00519984,-0.01800250,-0.056356
 59,0.00517764,0.00083239,0.00401593,0.00001743,-0.00113351,0.01431360,
 -0.00251845,0.00042301,-0.00008132,-0.00058007,0.00016857,-0.00090452,
 0.00030357,-0.00031773,0.00019064,0.00044036,0.03970120,0.11034332,0.0
 1941613,0.00128090,-0.03052302,0.06412766,0.00754003,-0.12446935,-0.00
 139320,-0.00067473,-0.00563524,0.01609600,0.00111061,-0.09340299,-0.00
 140782,-0.00055957,0.00019317,-0.01748012,-0.00179331,0.01174617,0.001
 07411,0.00021641,-0.00048946,-0.04255318,-0.00780324,0.83454844,-0.078
 46355,-0.00838848,0.00417881,-0.06379469,-0.00595117,0.00376808,-0.004
 38652,-0.00245736,-0.00407034,-0.18409467,-0.01048260,0.09585900,0.000
 45829,0.00157805,0.00422202,-0.00444181,-0.00074378,0.00356265,-0.0003
 1458,0.00072006,0.00099350,-0.18200703,-0.01122208,-0.13453844,0.83482
 632,-0.00795009,0.01487944,0.00055350,-0.00625943,0.01117946,-0.000322
 63,-0.00100324,0.00110429,-0.00115658,-0.01121875,-0.04872998,0.006986
 86,0.00059127,0.00073087,0.00066570,-0.00048288,0.00321486,0.00043859,
 0.00029288,-0.00005602,0.00030266,-0.01252152,-0.05665075,-0.01161559,
 0.06573430,0.10287173,0.03488463,0.00406435,-0.01365875,-0.05255809,-0
 .00623837,0.01845517,-0.00583743,0.00058579,0.00032027,0.10068305,0.00
 661106,-0.23604367,0.00045993,-0.00126563,-0.00303878,0.00230260,0.000
 93860,-0.00150936,0.00049500,-0.00008728,-0.00111276,-0.11953719,-0.00
 939661,-0.28174916,0.06593478,0.00792274,0.60573779,0.00259376,0.00091
 129,-0.03011375,-0.00751646,-0.00072370,-0.00223802,0.00227089,-0.0004
 2281,-0.00124843,-0.10720840,-0.00907957,-0.10856355,-0.00052252,-0.00
 034839,0.00014696,0.00055643,-0.00026984,-0.00139534,-0.00054272,0.000
 66507,0.00127310,-0.00366222,-0.00035396,0.00512638,0.01518582,0.00181
 585,0.01860099,0.09764914,0.00062983,-0.00574587,-0.00306021,-0.001158
 13,0.00159927,0.00023042,0.00043838,-0.00186062,0.00101441,-0.00884440
 ,-0.00184755,-0.00830151,-0.00034178,-0.00050820,-0.00013012,-0.000022
 09,0.00226647,-0.00019985,0.00016873,0.00035839,-0.00059170,0.00012041
 ,0.00169727,0.00047332,0.00183972,-0.00747292,0.00105117,0.00726101,0.
 01033080,0.00017322,-0.00013697,-0.00311934,-0.00121009,-0.00008548,0.
 00148366,0.00076609,0.00079444,0.00152741,-0.10920932,-0.00896652,-0.4
 2189807,-0.00014918,-0.00012428,-0.00044552,0.00019603,-0.00008662,0.0
 0002977,-0.00014738,-0.00044047,-0.00007068,0.00423237,0.00042964,-0.0
 0172328,-0.01222359,-0.00076804,-0.01321025,0.11786824,0.00948236,0.43
 683539,0.00324411,0.00172965,-0.00245628,-0.00060849,-0.00004432,0.001
 44725,-0.01409697,-0.01755996,-0.02253269,-0.00119794,-0.00038858,-0.0
 0024157,-0.12016822,-0.05306644,-0.06647643,-0.00049423,0.00095971,-0.
 00000831,-0.00274325,-0.00317579,0.00080683,0.00087408,-0.00068800,-0.
 00006612,0.00024134,0.00007209,-0.00073551,0.00003940,-0.00004661,0.00
 006917,0.58557432,0.00701059,-0.00330181,-0.00367125,-0.00055751,0.002
 07009,0.00277114,-0.02109792,-0.00550542,-0.01361776,0.00012447,0.0001
 1734,-0.00027831,-0.03548327,-0.09333076,-0.07440390,0.00002221,-0.000
 40958,-0.00010315,-0.00395189,0.00728775,-0.00139457,-0.00103173,-0.00
 044199,0.00022262,-0.00078496,-0.00056141,0.00135655,0.00055318,0.0000
 7621,-0.00003105,-0.00111433,0.29804845,0.00557189,0.00241602,-0.00745
 492,-0.00067879,0.00191553,0.00194213,-0.02518863,-0.01157716,-0.00382
 716,0.00118953,0.00062939,-0.00000729,-0.03247894,-0.06657394,-0.14973
 065,-0.00001000,-0.00044073,0.00036266,0.00009008,-0.00142924,0.003053
 98,-0.00171613,-0.00055868,0.00044684,-0.00201894,-0.00068591,0.002777
 13,0.00064507,0.00007094,0.00008448,-0.08751479,0.30968735,0.52320815,
 -0.00242880,-0.00351639,-0.00080478,-0.00020393,0.00015480,-0.00017651
 ,-0.01668519,0.00342179,0.02477966,-0.00034168,-0.00041399,0.00094746,
 -0.14948922,0.02503368,0.13128683,0.00000314,-0.00008648,0.00005734,-0
 .00027132,0.00186376,-0.00036540,-0.00000233,-0.00002621,0.00016272,-0
 .00027168,0.00007745,-0.00023897,-0.00003734,-0.00005312,0.00002858,0.
 00709960,-0.00488025,-0.01243959,0.16117304,-0.00357761,0.00712687,-0.
 00455522,0.00042865,-0.00030354,-0.00005938,-0.01083976,0.00429901,0.0
 0834270,-0.00128771,0.00047311,0.00114890,0.02885303,-0.04807074,-0.04
 509883,0.00000536,0.00008382,0.00004078,0.00158506,-0.00529652,0.00279
 032,0.00002703,0.00001126,0.00010180,-0.00015977,-0.00015201,-0.000374
 31,-0.00000080,0.00012965,0.00007653,0.00529933,-0.00366667,-0.0173306
 3,-0.01948569,0.04535397,-0.00040201,-0.00388822,0.00368764,-0.0003402
 5,0.00011040,-0.00017663,-0.00013122,-0.00070006,0.00376037,0.00073321
 ,-0.00009541,-0.00037741,0.13207220,-0.04616066,-0.23043840,-0.0000066
 6,-0.00013073,0.00003985,-0.00180080,0.00307016,0.00032763,-0.00019225
 ,0.00004544,0.00000688,-0.00006968,0.00007216,0.00035078,0.00001060,-0
 .00005958,-0.00004602,0.01039196,-0.00710375,-0.01645513,-0.13935986,0
 .05612230,0.24108974,-0.00634995,-0.00084853,0.00162343,0.00156015,-0.
 00022949,0.02569459,0.00098372,0.00002861,0.00095630,-0.00267144,-0.00
 067738,-0.00439795,0.00012336,0.00020802,0.00028945,0.00075102,0.00022
 520,-0.00104294,-0.00033081,0.00000637,0.00033792,-0.08635265,-0.00657
 529,0.08719682,0.01169715,0.00147677,-0.01618323,0.00094846,-0.0001710
 8,-0.00065299,0.00006161,-0.00020301,-0.00029484,-0.00004610,0.0000150
 7,-0.00003863,0.07960402,-0.00086422,0.00386618,-0.00016479,0.00014081
 ,-0.00148357,0.00235713,0.00006147,0.00113032,0.00043787,-0.00064514,0
 .00451118,-0.00034030,0.00012452,-0.00002469,-0.00011129,0.00011651,-0
 .00215488,-0.00015399,-0.00023536,-0.00011887,0.00015000,-0.00627176,-
 0.02338573,0.01130781,0.00097207,-0.00279361,-0.00176347,-0.00010731,0
 .00248259,-0.00015078,-0.00000725,0.00000856,-0.00006538,0.00001977,-0
 .00008538,0.00003631,0.00639626,0.02065530,0.00049741,0.00001111,0.000
 23644,-0.00149949,-0.00013386,-0.00151951,-0.00009599,-0.00000831,-0.0
 0003721,-0.00300340,-0.00017426,-0.00317215,-0.00007890,-0.00014685,-0
 .00019484,0.00046906,0.00002891,0.00007567,0.00009952,0.00006686,-0.00
 002365,0.08521038,0.01066156,-0.31834378,0.01270347,0.00125829,-0.0124
 7030,0.00082233,0.00008025,-0.00026157,-0.00000589,0.00015072,0.000193
 99,0.00002733,0.00000694,0.00001272,-0.09462057,-0.01164914,0.33537969
 ,0.00101880,0.00002105,0.00315755,-0.00046397,-0.00043637,-0.00272354,
 -0.00054525,-0.00040079,-0.00064394,-0.01382848,-0.00084310,-0.0049073
 0,-0.00003937,0.00017402,0.00028417,-0.00030652,-0.00019458,0.00031976
 ,0.00001790,-0.00001449,0.00002351,-0.00659844,-0.00040544,0.00407499,
 -0.34448009,-0.03035642,-0.02947083,-0.00007993,0.00017363,0.00031392,
 -0.00002096,-0.00006942,-0.00004507,-0.00007545,-0.00004701,-0.0000044
 2,0.00006081,0.00026415,-0.00053796,0.36531864,0.00013674,0.00143185,0
 .00054666,-0.00021991,0.00470644,-0.00054832,-0.00030249,0.00223255,-0
 .00032314,-0.00052997,-0.00410563,-0.00006382,0.00000348,0.00006667,0.
 00016687,-0.00024666,0.00136805,0.00013194,-0.00005898,-0.00003999,-0.
 00003099,-0.00049189,-0.00161795,0.00022972,-0.03103585,-0.01777407,-0
 .00307370,0.00015906,-0.00159251,0.00000272,0.00015184,0.00006918,-0.0
 0015613,0.00016955,-0.00036078,0.00015034,0.00024483,-0.00268122,-0.00
 009889,0.03211307,0.01820925,0.00042254,-0.00006685,-0.00596390,-0.003
 18008,-0.00017607,-0.00450603,0.00145323,0.00026979,0.00089418,0.03142
 713,0.00288769,0.00743348,-0.00003078,-0.00026546,-0.00052855,-0.00110
 496,-0.00013080,0.00086374,-0.00004498,0.00001179,0.00003667,-0.020595
 41,-0.00187174,0.00953490,-0.03890799,-0.00399644,-0.06403117,-0.00074
 845,-0.00005711,0.00075719,-0.00005688,0.00007557,0.00021940,0.0000700
 8,0.00011524,-0.00002793,0.00102962,0.00009262,0.00018265,0.03016682,0
 .00313320,0.05519454,0.00237943,0.00009606,-0.00497906,-0.00035580,0.0
 0212747,0.00082829,-0.00434781,-0.00611982,-0.00871384,0.00268207,0.00
 178231,0.00065725,0.01575322,0.00484205,0.00707300,-0.00017436,-0.0030
 9152,0.00061273,-0.00137724,0.00004774,0.00068005,-0.00359609,0.000259
 65,0.00035539,-0.00142189,-0.00069721,0.00374689,0.00076331,-0.0000481
 9,-0.00012832,-0.15594480,0.06515320,0.10233288,-0.00063244,-0.0023064
 6,-0.00212689,-0.00025821,-0.00003934,0.00013295,0.00002498,-0.0003334
 9,0.00025376,0.33611708,-0.00338915,-0.00225137,0.00443702,-0.00104598
 ,-0.00300606,-0.00193395,0.00758815,0.00393643,0.00306388,-0.00104499,
 -0.00032495,-0.00026659,0.00120725,-0.02399002,-0.02538126,-0.00190912
 ,0.00052628,0.00110443,0.00067049,0.00119106,-0.00049134,0.00202991,-0
 .00035680,0.00022278,0.00214037,0.00038000,-0.00235128,-0.00048981,0.0
 0004429,-0.00010855,0.07145369,-0.16548385,-0.18146592,-0.00224061,0.0
 0166163,-0.00149931,0.00035682,0.00022690,-0.00025522,0.00012659,0.000
 32570,-0.00012043,-0.25196877,0.50407061,-0.00432917,0.00071283,0.0055
 6981,0.00055989,-0.00388795,0.00018156,0.01156146,0.00604639,0.0099643
 2,-0.00407793,-0.00142132,-0.00096309,0.00179124,-0.02829902,-0.050046
 13,-0.00014795,0.00309762,-0.00001224,0.00145153,0.00014938,-0.0004818
 7,0.00402562,0.00023787,-0.00031117,0.00350288,0.00092724,-0.00498690,
 -0.00103247,0.00009959,0.00000881,0.10779517,-0.17685462,-0.28563886,-
 0.00394253,-0.00221589,-0.00305253,0.00060589,0.00013068,-0.00037365,0
 .00007278,0.00019854,-0.00032988,-0.37119138,0.58641665,0.92661044,0.0
 0015353,0.00006102,-0.00027158,0.00005034,0.00005990,-0.00004988,0.001
 01647,-0.00023452,-0.00159021,-0.00006220,0.00001918,0.00012688,-0.011
 51719,-0.00239857,0.00091444,-0.00001514,-0.00014910,0.00004841,-0.000
 34356,-0.00033732,0.00006565,-0.00004020,0.00007327,0.00008432,0.00010
 667,0.00003211,-0.00005206,0.00001992,-0.00002689,-0.00001801,-0.32301
 545,-0.02723639,0.02200476,0.00130690,0.00037936,0.00055979,-0.0000019
 5,-0.00000742,-0.00000610,0.00000689,-0.00001314,0.00001195,-0.0172946
 7,0.00457572,0.00933899,0.34736541,-0.00051953,0.00041105,0.00041372,-
 0.00016893,-0.00007318,0.00034958,0.00066079,0.00079678,-0.00237278,0.
 00013759,-0.00003554,0.00003036,-0.01813641,0.00103775,-0.00202443,-0.
 00008424,0.00030777,-0.00010974,-0.00052386,-0.00041348,-0.00016834,0.
 00007357,-0.00024562,-0.00016952,-0.00016882,0.00000963,0.00001545,-0.
 00000067,0.00000926,-0.00000544,-0.02594360,-0.02803977,-0.00759086,0.
 00041685,-0.00054798,0.00035757,0.00001176,-0.00001607,0.00000558,-0.0
 0000052,0.00003602,-0.00001835,0.02013322,-0.00127558,-0.00403781,0.02
 809873,0.02672448,0.00077383,-0.00021079,-0.00103728,0.00023919,0.0002
 2884,-0.00021567,-0.00127354,-0.00257328,-0.00265281,-0.00006842,0.000
 10159,0.00010813,-0.02310313,-0.00404580,0.00495953,0.00008360,-0.0003
 8706,0.00015732,-0.00050563,-0.00064894,0.00001656,-0.00024195,0.00021
 486,0.00018174,0.00004553,0.00000428,0.00016986,0.00008762,-0.00003504
 ,0.00000432,0.02865140,-0.00981534,-0.04074604,-0.00034825,0.00095952,
 0.00104649,-0.00001844,0.00000243,0.00000657,-0.00000636,-0.00004295,0
 .00003621,0.02612582,0.00172363,-0.00387778,-0.02758353,0.01771447,0.0
 4186229,-0.00092862,-0.00039224,0.00228816,-0.00067287,-0.00291235,0.0
 0023531,0.00094441,0.00211054,0.00397937,-0.00225047,-0.00095849,-0.00
 059234,-0.00657680,-0.00409007,-0.00526909,-0.00110501,0.00115795,-0.0
 0039636,0.00055928,0.00011860,-0.00035658,0.00238794,-0.00056058,-0.00
 027565,0.00116093,0.00039683,-0.00249455,-0.00045752,0.00008057,0.0000
 9127,0.02115584,0.02354704,0.03055153,0.00090281,0.00111192,0.00070492
 ,0.00022081,0.00008224,-0.00011416,-0.00000956,0.00025380,-0.00016559,
 -0.17231681,0.17193943,0.24401597,0.00226420,-0.00398594,-0.00285774,0
 .15472145,0.00180972,0.00069522,-0.00274175,0.00070412,0.00005529,0.00
 078462,-0.00340724,-0.00218642,-0.00248283,0.00087280,0.00043279,0.000
 22792,0.00309918,0.00987219,0.00513548,-0.00059629,-0.00150643,-0.0004
 2151,-0.00037437,-0.00065305,0.00039075,-0.00186191,0.00032003,-0.0000
 9005,-0.00158971,-0.00017950,0.00200494,0.00043140,0.00003346,0.000118
 51,0.02236860,-0.00693633,-0.02684464,-0.00045490,-0.00065571,-0.00032
 696,-0.00026492,-0.00013703,0.00019630,-0.00010436,-0.00027357,0.00011
 736,0.17016308,-0.31567426,-0.38130017,-0.00289593,0.00131450,-0.00319
 042,-0.18789928,0.31547883,0.00136859,-0.00092907,-0.00186433,-0.00015
 316,0.00221174,-0.00068693,-0.00309319,-0.00209285,-0.00647864,0.00341
 371,0.00114554,0.00069965,0.00193942,0.00634654,0.01514788,0.00062921,
 -0.00164774,0.00006057,-0.00083854,0.00007971,0.00027482,-0.00318532,0
 .00000058,-0.00001070,-0.00294174,-0.00058682,0.00400011,0.00075871,-0
 .00006733,0.00004370,0.03093270,-0.02699024,-0.02842870,0.00031589,-0.
 00007077,0.00025194,-0.00048443,-0.00011571,0.00030894,-0.00007407,-0.
 00022203,0.00023449,0.24434050,-0.38309454,-0.59226084,-0.00358381,-0.
 00238946,-0.00001945,-0.26934447,0.40842245,0.60872748\\-0.00214736,0.
 00073964,-0.00000182,0.00214757,-0.00060930,0.00002598,-0.00005660,-0.
 00018811,-0.00005247,-0.00001211,0.00010512,-0.00003370,0.00002098,0.0
 0001120,0.00002113,-0.00001760,-0.00001872,0.00000334,0.00000873,-0.00
 003259,0.00001601,-0.00000748,0.00014868,0.00000887,0.00002082,-0.0000
 5364,0.00001267,0.00000801,-0.00000668,-0.00000952,-0.00002337,-0.0000
 5627,0.00000997,0.00000151,-0.00001790,0.00000879,0.00000491,-0.000003
 19,0.00000661,0.00001488,-0.00006781,-0.00000513,0.00005707,0.00002346
 ,0.00002445,-0.00000654,0.00002278,-0.00002159,-0.00001339,0.00000334,
 -0.00001359\\\@


 THE REAL VOYAGE OF DISCOVERY CONSISTS NOT IN SEEKING NEW LANDSCAPES 
 BUT IN HAVING NEW EYES.
                                                    -- MARCEL PROUST
 Job cpu time:       0 days  2 hours  3 minutes  2.9 seconds.
 Elapsed time:       0 days  0 hours 10 minutes 16.1 seconds.
 File lengths (MBytes):  RWF=    182 Int=      0 D2E=      0 Chk=     32 Scr=      1
 Normal termination of Gaussian 16 at Fri Jun 10 12:44:05 2022.
