 Entering Gaussian System, Link 0=g16
 Input=int_zmat_field_N25.gjf
 Output=int_zmat_field_N25.out
 Initial command:
 /software/gaussian/g16-a03/l1.exe "/local_scratch/11171844/Gau-31650.inp" -scrdir="/local_scratch/11171844/"
 Entering Link 1 = /software/gaussian/g16-a03/l1.exe PID=     31651.
  
 Copyright (c) 1988,1990,1992,1993,1995,1998,2003,2009,2016,
            Gaussian, Inc.  All Rights Reserved.
  
 This is part of the Gaussian(R) 16 program.  It is based on
 the Gaussian(R) 09 system (copyright 2009, Gaussian, Inc.),
 the Gaussian(R) 03 system (copyright 2003, Gaussian, Inc.),
 the Gaussian(R) 98 system (copyright 1998, Gaussian, Inc.),
 the Gaussian(R) 94 system (copyright 1995, Gaussian, Inc.),
 the Gaussian 92(TM) system (copyright 1992, Gaussian, Inc.),
 the Gaussian 90(TM) system (copyright 1990, Gaussian, Inc.),
 the Gaussian 88(TM) system (copyright 1988, Gaussian, Inc.),
 the Gaussian 86(TM) system (copyright 1986, Carnegie Mellon
 University), and the Gaussian 82(TM) system (copyright 1983,
 Carnegie Mellon University). Gaussian is a federally registered
 trademark of Gaussian, Inc.
  
 This software contains proprietary and confidential information,
 including trade secrets, belonging to Gaussian, Inc.
  
 This software is provided under written license and may be
 used, copied, transmitted, or stored only in accord with that
 written license.
  
 The following legend is applicable only to US Government
 contracts under FAR:
  
                    RESTRICTED RIGHTS LEGEND
  
 Use, reproduction and disclosure by the US Government is
 subject to restrictions as set forth in subparagraphs (a)
 and (c) of the Commercial Computer Software - Restricted
 Rights clause in FAR 52.227-19.
  
 Gaussian, Inc.
 340 Quinnipiac St., Bldg. 40, Wallingford CT 06492
  
  
 ---------------------------------------------------------------
 Warning -- This program may not be used in any manner that
 competes with the business of Gaussian, Inc. or will provide
 assistance to any competitor of Gaussian, Inc.  The licensee
 of this program is prohibited from giving any competitor of
 Gaussian, Inc. access to this program.  By using this program,
 the user acknowledges that Gaussian, Inc. is engaged in the
 business of creating and licensing software in the field of
 computational chemistry and represents and warrants to the
 licensee that it is not a competitor of Gaussian, Inc. and that
 it will not use this program in any manner prohibited above.
 ---------------------------------------------------------------
  

 Cite this work as:
 Gaussian 16, Revision A.03,
 M. J. Frisch, G. W. Trucks, H. B. Schlegel, G. E. Scuseria, 
 M. A. Robb, J. R. Cheeseman, G. Scalmani, V. Barone, 
 G. A. Petersson, H. Nakatsuji, X. Li, M. Caricato, A. V. Marenich, 
 J. Bloino, B. G. Janesko, R. Gomperts, B. Mennucci, H. P. Hratchian, 
 J. V. Ortiz, A. F. Izmaylov, J. L. Sonnenberg, D. Williams-Young, 
 F. Ding, F. Lipparini, F. Egidi, J. Goings, B. Peng, A. Petrone, 
 T. Henderson, D. Ranasinghe, V. G. Zakrzewski, J. Gao, N. Rega, 
 G. Zheng, W. Liang, M. Hada, M. Ehara, K. Toyota, R. Fukuda, 
 J. Hasegawa, M. Ishida, T. Nakajima, Y. Honda, O. Kitao, H. Nakai, 
 T. Vreven, K. Throssell, J. A. Montgomery, Jr., J. E. Peralta, 
 F. Ogliaro, M. J. Bearpark, J. J. Heyd, E. N. Brothers, K. N. Kudin, 
 V. N. Staroverov, T. A. Keith, R. Kobayashi, J. Normand, 
 K. Raghavachari, A. P. Rendell, J. C. Burant, S. S. Iyengar, 
 J. Tomasi, M. Cossi, J. M. Millam, M. Klene, C. Adamo, R. Cammi, 
 J. W. Ochterski, R. L. Martin, K. Morokuma, O. Farkas, 
 J. B. Foresman, and D. J. Fox, Gaussian, Inc., Wallingford CT, 2016.
 
 ******************************************
 Gaussian 16:  ES64L-G16RevA.03 25-Dec-2016
                10-Jun-2022 
 ******************************************
 %nprocshared=12
 Will use up to   12 processors via shared memory.
 %chk=checkpoint.chk
 %mem=12GB
 ----------------------------------------------------------------------
 # Opt=(Z-matrix, MaxStep=10) B3LYP/Def2TZVP Field=read NoSymm freq=nor
 aman pop=none
 ----------------------------------------------------------------------
 1/8=10,10=7,18=40,26=3,38=1/1,3;
 2/12=2,15=1,17=6,18=5,29=3,40=1/2;
 3/5=44,7=101,11=2,14=-6,25=1,30=1,71=1,74=-5/1,2,3;
 4//1;
 5/5=2,38=5/2;
 7/29=1,30=1/1,2,3,16;
 1/8=10,10=7,18=40,26=3/3(2);
 2/15=1,29=3/2;
 99//99;
 2/15=1,29=3/2;
 3/5=44,7=101,11=2,14=-2,25=1,30=1,71=1,74=-5/1,2,3;
 4/5=5,16=3,69=1/1;
 5/5=2,38=5/2;
 7/30=1/1,2,3,16;
 1/8=10,18=40,26=3/3(-5);
 2/15=1,29=3/2;
 99/9=1/99;
 ------------------
 int_zmat_initalOpt
 ------------------
 Symbolic Z-matrix:
 Charge =  0 Multiplicity = 1
 C
 C                    1    R2
 C                    1    R3       2    A3
 N                    1    R4       2    A4       3    D4       0
 C                    3    R5       1    A5       2    D5       0
 H                    2    R6       1    A6       3    D6       0
 H                    3    R7       1    A7       5    D7       0
 C                    2    R8       1    A8       6    D8       0
 C                    4    R9       1    A9       2    D9       0
 H                    4    R10      1    A10      9    D10      0
 C                    5    R11      3    A11      1    D11      0
 H                    5    R12      3    A12      11   D12      0
 H                    8    R13      2    A13      1    D13      0
 H                    9    R14      4    A14      1    D14      0
 C                    11   R15      5    A15      3    D15      0
 H                    11   R16      5    A16      15   D16      0
 O                    15   R17      11   A17      5    D17      0
       Variables:
  R2                    1.38864                  
  R3                    1.44481                  
  R4                    1.38161                  
  R5                    1.34727                  
  R6                    1.07576                  
  R7                    1.08623                  
  R8                    1.41452                  
  R9                    1.36598                  
  R10                   1.00484                  
  R11                   1.45401                  
  R12                   1.0832                   
  R13                   1.07724                  
  R14                   1.07652                  
  R15                   1.31998                  
  R16                   1.08514                  
  R17                   1.15845                  
  A3                  134.06789                  
  A4                  106.10832                  
  A5                  130.23634                  
  A6                  125.97988                  
  A7                  114.48898                  
  A8                  108.13984                  
  A9                  110.6512                   
  A10                 124.15012                  
  A11                 131.31083                  
  A12                 116.2077                   
  A13                 126.67419                  
  A14                 121.39736                  
  A15                 129.55523                  
  A16                 118.04393                  
  A17                 176.33459                  
  D4                  175.85879                  
  D5                  -24.54261                  
  D6                    0.50037                  
  D7                  179.21949                  
  D8                 -176.85455                  
  D9                    0.83637                  
  D10                 176.13526                  
  D11                  -5.10918                  
  D12                -179.16984                  
  D13                 179.52434                  
  D14                 179.02346                  
  D15                 -17.85921                  
  D16                -173.38427                  
  D17                 176.91116                  
 

 GradGradGradGradGradGradGradGradGradGradGradGradGradGradGradGradGradGrad
 Berny optimization.
 Initialization pass.
                       ----------------------------
                       !    Initial Parameters    !
                       ! (Angstroms and Degrees)  !
 ----------------------                            ----------------------
 !      Name          Value   Derivative information (Atomic Units)     !
 ------------------------------------------------------------------------
 !       R2          1.3886   estimate D2E/DX2                          !
 !       R3          1.4448   estimate D2E/DX2                          !
 !       R4          1.3816   estimate D2E/DX2                          !
 !       R5          1.3473   estimate D2E/DX2                          !
 !       R6          1.0758   estimate D2E/DX2                          !
 !       R7          1.0862   estimate D2E/DX2                          !
 !       R8          1.4145   estimate D2E/DX2                          !
 !       R9          1.366    estimate D2E/DX2                          !
 !       R10         1.0048   estimate D2E/DX2                          !
 !       R11         1.454    estimate D2E/DX2                          !
 !       R12         1.0832   estimate D2E/DX2                          !
 !       R13         1.0772   estimate D2E/DX2                          !
 !       R14         1.0765   estimate D2E/DX2                          !
 !       R15         1.32     estimate D2E/DX2                          !
 !       R16         1.0851   estimate D2E/DX2                          !
 !       R17         1.1584   estimate D2E/DX2                          !
 !       A3        134.0679   estimate D2E/DX2                          !
 !       A4        106.1083   estimate D2E/DX2                          !
 !       A5        130.2363   estimate D2E/DX2                          !
 !       A6        125.9799   estimate D2E/DX2                          !
 !       A7        114.489    estimate D2E/DX2                          !
 !       A8        108.1398   estimate D2E/DX2                          !
 !       A9        110.6512   estimate D2E/DX2                          !
 !       A10       124.1501   estimate D2E/DX2                          !
 !       A11       131.3108   estimate D2E/DX2                          !
 !       A12       116.2077   estimate D2E/DX2                          !
 !       A13       126.6742   estimate D2E/DX2                          !
 !       A14       121.3974   estimate D2E/DX2                          !
 !       A15       129.5552   estimate D2E/DX2                          !
 !       A16       118.0439   estimate D2E/DX2                          !
 !       A17       176.3346   estimate D2E/DX2                          !
 !       D4        175.8588   estimate D2E/DX2                          !
 !       D5        -24.5426   estimate D2E/DX2                          !
 !       D6          0.5004   estimate D2E/DX2                          !
 !       D7        179.2195   estimate D2E/DX2                          !
 !       D8       -176.8546   estimate D2E/DX2                          !
 !       D9          0.8364   estimate D2E/DX2                          !
 !       D10       176.1353   estimate D2E/DX2                          !
 !       D11        -5.1092   estimate D2E/DX2                          !
 !       D12      -179.1698   estimate D2E/DX2                          !
 !       D13       179.5243   estimate D2E/DX2                          !
 !       D14       179.0235   estimate D2E/DX2                          !
 !       D15       -17.8592   estimate D2E/DX2                          !
 !       D16      -173.3843   estimate D2E/DX2                          !
 !       D17       176.9112   estimate D2E/DX2                          !
 ------------------------------------------------------------------------
 Trust Radius=1.00D-01 FncErr=1.00D-07 GrdErr=1.00D-06 EigMax=2.50D+02 EigMin=1.00D-04
 Number of steps in this run=     55 maximum allowed number of steps=    100.
 GradGradGradGradGradGradGradGradGradGradGradGradGradGradGradGradGradGrad

 ---------------------------------------------------------------------------------------------------
                            Z-MATRIX (ANGSTROMS AND DEGREES)
   CD    Cent   Atom    N1       Length/X        N2       Alpha/Y        N3        Beta/Z          J
 ---------------------------------------------------------------------------------------------------
      1      1  C 
      2      2  C        1   1.388644(     1)
      3      3  C        1   1.444809(     2)      2  134.068(    17)
      4      4  N        1   1.381610(     3)      2  106.108(    18)      3  175.859(    32)      0
      5      5  C        3   1.347266(     4)      1  130.236(    19)      2  -24.543(    33)      0
      6      6  H        2   1.075765(     5)      1  125.980(    20)      3    0.500(    34)      0
      7      7  H        3   1.086232(     6)      1  114.489(    21)      5  179.219(    35)      0
      8      8  C        2   1.414525(     7)      1  108.140(    22)      6 -176.855(    36)      0
      9      9  C        4   1.365982(     8)      1  110.651(    23)      2    0.836(    37)      0
     10     10  H        4   1.004841(     9)      1  124.150(    24)      9  176.135(    38)      0
     11     11  C        5   1.454006(    10)      3  131.311(    25)      1   -5.109(    39)      0
     12     12  H        5   1.083197(    11)      3  116.208(    26)     11 -179.170(    40)      0
     13     13  H        8   1.077236(    12)      2  126.674(    27)      1  179.524(    41)      0
     14     14  H        9   1.076516(    13)      4  121.397(    28)      1  179.023(    42)      0
     15     15  C       11   1.319979(    14)      5  129.555(    29)      3  -17.859(    43)      0
     16     16  H       11   1.085143(    15)      5  118.044(    30)     15 -173.384(    44)      0
     17     17  O       15   1.158447(    16)     11  176.335(    31)      5  176.911(    45)      0
 ---------------------------------------------------------------------------------------------------
                         Z-Matrix orientation:                         
 ---------------------------------------------------------------------
 Center     Atomic      Atomic             Coordinates (Angstroms)
 Number     Number       Type             X           Y           Z
 ---------------------------------------------------------------------
      1          6           0        0.000000    0.000000    0.000000
      2          6           0        0.000000    0.000000    1.388644
      3          6           0        1.038119    0.000000   -1.004879
      4          7           0       -1.323901   -0.095856   -0.383333
      5          6           0        2.314106    0.427202   -0.937933
      6          1           0        0.870501    0.007602    2.020657
      7          1           0        0.740181   -0.422811   -1.960057
      8          6           0       -1.341502   -0.085477    1.829038
      9          6           0       -2.140559   -0.136278    0.710898
     10          1           0       -1.637792   -0.074535   -1.337652
     11          6           0        3.042961    1.111901    0.117571
     12          1           0        2.923634    0.252901   -1.816234
     13          1           0       -1.682786   -0.114410    2.850372
     14          1           0       -3.210732   -0.195125    0.610137
     15          6           0        2.583773    1.775044    1.162430
     16          1           0        4.120685    1.195199    0.022131
     17          8           0        2.250971    2.366964    2.100978
 ---------------------------------------------------------------------
                    Distance matrix (angstroms):
                    1          2          3          4          5
     1  C    0.000000
     2  C    1.388644   0.000000
     3  C    1.444809   2.608954   0.000000
     4  N    1.381610   2.214002   2.444308   0.000000
     5  C    2.533240   3.309161   1.347266   3.717023   0.000000
     6  H    2.200200   1.075765   3.030185   3.256573   3.318631
     7  H    2.137396   3.455493   1.086232   2.617898   2.060217
     8  C    2.269871   1.414525   3.701484   2.212466   4.613289
     9  C    2.259633   2.249423   3.614755   1.365982   4.783324
    10  H    2.115947   3.181290   2.697553   1.004841   4.003625
    11  C    3.241876   3.480167   2.552570   4.558406   1.454006
    12  H    3.451130   4.345438   2.068193   4.496263   1.083197
    13  H    3.312021   2.231929   4.720104   3.253613   5.533511
    14  H    3.274010   3.309524   4.549625   2.134706   5.771278
    15  C    3.343337   3.142902   3.199540   4.599952   2.510164
    16  H    4.290575   4.502877   3.462003   5.610235   2.185239
    17  O    3.883748   3.343174   4.088995   5.001699   3.605780
                    6          7          8          9         10
     6  H    0.000000
     7  H    4.006035   0.000000
     8  C    2.222237   4.336408   0.000000
     9  C    3.286738   3.938879   1.375249   0.000000
    10  H    4.192435   2.482628   3.180539   2.110247   0.000000
    11  C    3.092054   3.460444   4.856578   5.364594   5.043288
    12  H    4.358584   2.290139   5.620844   5.673086   4.598137
    13  H    2.687487   5.395008   1.077236   2.188009   4.188456
    14  H    4.322861   4.718840   2.234226   1.076516   2.506504
    15  C    2.606857   4.240203   4.394733   5.116282   5.243373
    16  H    3.996021   4.239673   5.894109   6.438199   6.051553
    17  O    2.734728   5.153381   4.358243   5.242526   5.736512
                   11         12         13         14         15
    11  C    0.000000
    12  H    2.119367   0.000000
    13  H    5.595063   6.567437   0.000000
    14  H    6.407778   6.611993   2.712893   0.000000
    15  C    1.319979   3.362270   4.962127   6.145151   0.000000
    16  H    1.085143   2.387560   6.587435   7.485214   1.999650
    17  O    2.477163   4.501809   4.710972   6.214267   1.158447
                   16         17
    16  H    0.000000
    17  O    3.031579   0.000000
 Symmetry turned off by external request.
 Stoichiometry    C8H7NO
 Framework group  C1[X(C8H7NO)]
 Deg. of freedom    45
 Full point group                 C1      NOp   1
 Rotational constants (GHZ):           2.4040287           0.9754096           0.7267254
 Standard basis: def2TZVP (5D, 7F)
 The following finite field(s) will be applied:
 An electric field of             -0.0021  0.0004  0.0013
   352 basis functions,   566 primitive gaussians,   402 cartesian basis functions
    35 alpha electrons       35 beta electrons
       nuclear repulsion energy       459.9971060164 Hartrees.
 NAtoms=   17 NActive=   17 NUniq=   17 SFac= 1.00D+00 NAtFMM=   60 NAOKFM=F Big=F
 Integral buffers will be    131072 words long.
 Raffenetti 2 integral format.
 Two-electron integral symmetry is turned off.
 One-electron integrals computed using PRISM.
   1 Symmetry operations used in ECPInt.
 ECPInt:  NShTT=    9591 NPrTT=   29644 LenC2=    9221 LenP2D=   22129.
 LDataN:  DoStor=T MaxTD1= 6 Len=  172
 NBasis=   352 RedAO= T EigKep=  3.29D-05  NBF=   352
 NBsUse=   352 1.00D-06 EigRej= -1.00D+00 NBFU=   352
 The nuclear repulsion energy is now       459.9341769896 hartrees.
 ExpMin= 9.52D-02 ExpMax= 2.70D+04 ExpMxC= 9.22D+02 IAcc=3 IRadAn=         5 AccDes= 0.00D+00
 Harris functional with IExCor=  402 and IRadAn=       5 diagonalized for initial guess.
 HarFok:  IExCor=  402 AccDes= 0.00D+00 IRadAn=         5 IDoV= 1 UseB2=F ITyADJ=14
 ICtDFT=  3500011 ScaDFX=  1.000000  1.000000  1.000000  1.000000
 FoFCou: FMM=F IPFlag=           0 FMFlag=      100000 FMFlg1=           0
         NFxFlg=           0 DoJE=T BraDBF=F KetDBF=T FulRan=T
         wScrn=  0.000000 ICntrl=       500 IOpCl=  0 I1Cent=   200000004 NGrid=           0
         NMat0=    1 NMatS0=      1 NMatT0=    0 NMatD0=    1 NMtDS0=    0 NMtDT0=    0
 Symmetry not used in FoFCou.
 Requested convergence on RMS density matrix=1.00D-08 within 128 cycles.
 Requested convergence on MAX density matrix=1.00D-06.
 Requested convergence on             energy=1.00D-06.
 No special actions if energy rises.
 Integral accuracy reduced to 1.0D-05 until final iterations.
 Initial convergence to 1.0D-05 achieved.  Increase integral accuracy.
 SCF Done:  E(RB3LYP) =  -439.155266505     A.U. after   15 cycles
            NFock= 15  Conv=0.75D-08     -V/T= 2.0049
   1 Symmetry operations used in ECPInt.
 ECPInt:  NShTT=    9591 NPrTT=   29644 LenC2=    9221 LenP2D=   22129.
 LDataN:  DoStor=T MaxTD1= 7 Len=  274
 Calling FoFJK, ICntrl=      2127 FMM=F ISym2X=0 I1Cent= 0 IOpClX= 0 NMat=1 NMatS=1 NMatT=0.
 -------------------------------------------------------------------
 Center     Atomic                   Forces (Hartrees/Bohr)
 Number     Number              X              Y              Z
 -------------------------------------------------------------------
      1        6          -0.000297088   -0.000057768    0.000557090
      2        6           0.000373309    0.000039077   -0.000115634
      3        6           0.000560238    0.000073784   -0.000869634
      4        7           0.000455798    0.000331739    0.000019418
      5        6          -0.000151978    0.000385838    0.000526905
      6        1           0.000043504   -0.000044445   -0.000165294
      7        1           0.000094538   -0.000080986    0.000145612
      8        6          -0.000543613    0.000135164   -0.000235485
      9        6          -0.000693161   -0.000024033    0.000538271
     10        1           0.000389165   -0.000153462   -0.000163223
     11        6          -0.000666005    0.000087483    0.000249455
     12        1          -0.000059345   -0.000031677    0.000177723
     13        1           0.000023262   -0.000072716    0.000197108
     14        1          -0.000071394   -0.000127052   -0.000123169
     15        6           0.001054959   -0.001070790   -0.001583136
     16        1           0.000204568   -0.000015222   -0.000085856
     17        8          -0.000716756    0.000625066    0.000929850
 -------------------------------------------------------------------
 Cartesian Forces:  Max     0.001583136 RMS     0.000464929
 -----------------------------------------------------------------------------------------------
                       Internal Coordinate Forces (Hartree/Bohr or radian)
  Cent   Atom   N1       Length/X         N2         Alpha/Y        N3         Beta/Z          J
 -----------------------------------------------------------------------------------------------
      1  C 
      2  C        1  -0.000319(     1)
      3  C        1   0.000584(     2)      2  -0.000384(    17)
      4  N        1  -0.000154(     3)      2   0.001347(    18)      3  -0.000446(    32)     0
      5  C        3  -0.000312(     4)      1  -0.000704(    19)      2  -0.000247(    33)     0
      6  H        2  -0.000062(     5)      1  -0.000323(    20)      3  -0.000268(    34)     0
      7  H        3  -0.000122(     6)      1   0.000039(    21)      5  -0.000273(    35)     0
      8  C        2   0.000478(     7)      1  -0.000363(    22)      6  -0.000194(    36)     0
      9  C        4   0.000794(     8)      1   0.001197(    23)      2   0.000011(    37)     0
     10  H        4   0.000030(     9)      1  -0.000766(    24)      9   0.000306(    38)     0
     11  C        5  -0.000593(    10)      3  -0.000023(    25)      1  -0.000067(    39)     0
     12  H        5  -0.000172(    11)      3   0.000043(    26)     11  -0.000142(    40)     0
     13  H        8   0.000181(    12)      2  -0.000164(    27)      1  -0.000118(    41)     0
     14  H        9   0.000089(    13)      4  -0.000236(    28)      1   0.000213(    42)     0
     15  C       11  -0.000859(    14)      5  -0.000693(    29)      3   0.000001(    43)     0
     16  H       11   0.000210(    15)      5  -0.000152(    30)     15   0.000011(    44)     0
     17  O       15   0.001279(    16)     11   0.000801(    31)      5   0.000002(    45)     0
 -----------------------------------------------------------------------------------------------
 Internal  Forces:  Max     0.001347376 RMS     0.000491034

 GradGradGradGradGradGradGradGradGradGradGradGradGradGradGradGradGradGrad
 Berny optimization.
 Search for a local minimum.
 Step number   1 out of a maximum of   55
 All quantities printed in internal units (Hartrees-Bohrs-Radians)
 Second derivative matrix not updated -- first step.
 ITU=  0
     Eigenvalues ---    0.02607   0.03141   0.03936   0.04469   0.05463
     Eigenvalues ---    0.07814   0.08507   0.09892   0.13282   0.14621
     Eigenvalues ---    0.15345   0.20138   0.20280   0.20349   0.21584
     Eigenvalues ---    0.23383   0.23681   0.24036   0.25640   0.29036
     Eigenvalues ---    0.30656   0.35252   0.35380   0.35611   0.36330
     Eigenvalues ---    0.36419   0.36511   0.37725   0.38933   0.39109
     Eigenvalues ---    0.44559   0.46847   0.48537   0.51373   0.53732
     Eigenvalues ---    0.53976   0.54336   0.55607   0.57363   0.61938
     Eigenvalues ---    0.70236   1.28816   1.74371   1.85713  16.31529
 RFO step:  Lambda=-2.16953061D-05 EMin= 2.60745936D-02
 Linear search not attempted -- first point.
 Variable       Old X    -DE/DX   Delta X   Delta X   Delta X     New X
                                 (Linear)    (Quad)   (Total)
    R2        2.62416  -0.00032   0.00000  -0.00069  -0.00069   2.62346
    R3        2.73029   0.00058   0.00000   0.00150   0.00150   2.73179
    R4        2.61086  -0.00015   0.00000  -0.00105  -0.00105   2.60981
    R5        2.54596  -0.00031   0.00000  -0.00056  -0.00056   2.54540
    R6        2.03290  -0.00006   0.00000  -0.00017  -0.00017   2.03273
    R7        2.05268  -0.00012   0.00000  -0.00035  -0.00035   2.05234
    R8        2.67306   0.00048   0.00000   0.00191   0.00191   2.67498
    R9        2.58133   0.00079   0.00000   0.00111   0.00111   2.58245
   R10        1.89887   0.00003   0.00000   0.00007   0.00007   1.89894
   R11        2.74767  -0.00059   0.00000  -0.00157  -0.00157   2.74610
   R12        2.04695  -0.00017   0.00000  -0.00048  -0.00048   2.04646
   R13        2.03568   0.00018   0.00000   0.00050   0.00050   2.03618
   R14        2.03432   0.00009   0.00000   0.00025   0.00025   2.03457
   R15        2.49440  -0.00086   0.00000  -0.00139  -0.00139   2.49301
   R16        2.05062   0.00021   0.00000   0.00059   0.00059   2.05121
   R17        2.18915   0.00128   0.00000   0.00099   0.00099   2.19014
    A3        2.33993  -0.00038   0.00000  -0.00094  -0.00094   2.33898
    A4        1.85194   0.00135   0.00000   0.00089   0.00089   1.85283
    A5        2.27305  -0.00070   0.00000  -0.00170  -0.00170   2.27135
    A6        2.19876  -0.00032   0.00000  -0.00048  -0.00048   2.19828
    A7        1.99821   0.00004   0.00000   0.00094   0.00094   1.99915
    A8        1.88740  -0.00036   0.00000  -0.00108  -0.00108   1.88632
    A9        1.93123   0.00120   0.00000   0.00077   0.00077   1.93199
   A10        2.16683  -0.00077   0.00000  -0.00270  -0.00270   2.16413
   A11        2.29181  -0.00002   0.00000   0.00025   0.00025   2.29205
   A12        2.02821   0.00004   0.00000  -0.00006  -0.00006   2.02815
   A13        2.21088  -0.00016   0.00000  -0.00093  -0.00093   2.20995
   A14        2.11878  -0.00024   0.00000  -0.00009  -0.00009   2.11869
   A15        2.26117  -0.00069   0.00000  -0.00157  -0.00157   2.25960
   A16        2.06026  -0.00015   0.00000   0.00021   0.00021   2.06046
   A17        3.07762   0.00080   0.00000   0.00303   0.00303   3.08065
    D4        3.06931  -0.00045   0.00000  -0.00358  -0.00358   3.06574
    D5       -0.42835  -0.00025   0.00000  -0.00303  -0.00303  -0.43138
    D6        0.00873  -0.00027   0.00000   0.00180   0.00180   0.01053
    D7        3.12797  -0.00027   0.00000  -0.00204  -0.00204   3.12593
    D8       -3.08669  -0.00019   0.00000   0.00098   0.00098  -3.08571
    D9        0.01460   0.00001   0.00000  -0.00031  -0.00031   0.01428
   D10        3.07414   0.00031   0.00000   0.00432   0.00432   3.07846
   D11       -0.08917  -0.00007   0.00000  -0.00006  -0.00006  -0.08924
   D12       -3.12710  -0.00014   0.00000  -0.00153  -0.00153  -3.12863
   D13        3.13329  -0.00012   0.00000  -0.00150  -0.00150   3.13180
   D14        3.12455   0.00021   0.00000   0.00359   0.00359   3.12814
   D15       -0.31170   0.00000   0.00000  -0.00046  -0.00046  -0.31216
   D16       -3.02613   0.00001   0.00000   0.00011   0.00011  -3.02602
   D17        3.08768   0.00000   0.00000   0.00011   0.00011   3.08780
         Item               Value     Threshold  Converged?
 Maximum Force            0.001347     0.000450     NO 
 RMS     Force            0.000491     0.000300     NO 
 Maximum Displacement     0.004316     0.001800     NO 
 RMS     Displacement     0.001561     0.001200     NO 
 Predicted change in Energy=-1.084765D-05
 GradGradGradGradGradGradGradGradGradGradGradGradGradGradGradGradGradGrad

 ---------------------------------------------------------------------------------------------------
                            Z-MATRIX (ANGSTROMS AND DEGREES)
   CD    Cent   Atom    N1       Length/X        N2       Alpha/Y        N3        Beta/Z          J
 ---------------------------------------------------------------------------------------------------
      1      1  C 
      2      2  C        1   1.388277(     1)
      3      3  C        1   1.445603(     2)      2  134.014(    17)
      4      4  N        1   1.381052(     3)      2  106.159(    18)      3  175.654(    32)      0
      5      5  C        3   1.346968(     4)      1  130.139(    19)      2  -24.716(    33)      0
      6      6  H        2   1.075675(     5)      1  125.952(    20)      3    0.603(    34)      0
      7      7  H        3   1.086049(     6)      1  114.543(    21)      5  179.102(    35)      0
      8      8  C        2   1.415538(     7)      1  108.078(    22)      6 -176.798(    36)      0
      9      9  C        4   1.366571(     8)      1  110.695(    23)      2    0.818(    37)      0
     10     10  H        4   1.004878(     9)      1  123.995(    24)      9  176.383(    38)      0
     11     11  C        5   1.453173(    10)      3  131.325(    25)      1   -5.113(    39)      0
     12     12  H        5   1.082942(    11)      3  116.204(    26)     11 -179.257(    40)      0
     13     13  H        8   1.077500(    12)      2  126.621(    27)      1  179.439(    41)      0
     14     14  H        9   1.076647(    13)      4  121.392(    28)      1  179.229(    42)      0
     15     15  C       11   1.319243(    14)      5  129.466(    29)      3  -17.886(    43)      0
     16     16  H       11   1.085455(    15)      5  118.056(    30)     15 -173.378(    44)      0
     17     17  O       15   1.158973(    16)     11  176.508(    31)      5  176.918(    45)      0
 ---------------------------------------------------------------------------------------------------
                         Z-Matrix orientation:                         
 ---------------------------------------------------------------------
 Center     Atomic      Atomic             Coordinates (Angstroms)
 Number     Number       Type             X           Y           Z
 ---------------------------------------------------------------------
      1          6           0        0.000000    0.000000    0.000000
      2          6           0        0.000000    0.000000    1.388277
      3          6           0        1.039637    0.000000   -1.004451
      4          7           0       -1.322674   -0.100526   -0.384358
      5          6           0        2.314051    0.430557   -0.935068
      6          1           0        0.870719    0.009169    2.019815
      7          1           0        0.745086   -0.427083   -1.958570
      8          6           0       -1.342693   -0.089301    1.827537
      9          6           0       -2.141310   -0.144434    0.708996
     10          1           0       -1.632936   -0.083304   -1.339984
     11          6           0        3.038342    1.118608    0.120252
     12          1           0        2.926457    0.255020   -1.810801
     13          1           0       -1.684047   -0.120496    2.849061
     14          1           0       -3.211019   -0.210476    0.606372
     15          6           0        2.573409    1.782096    1.161416
     16          1           0        4.116424    1.204292    0.027463
     17          8           0        2.231721    2.374750    2.096953
 ---------------------------------------------------------------------
                    Distance matrix (angstroms):
                    1          2          3          4          5
     1  C    0.000000
     2  C    1.388277   0.000000
     3  C    1.445603   2.608830   0.000000
     4  N    1.381052   2.214003   2.444409   0.000000
     5  C    2.532699   3.307287   1.346968   3.716329   0.000000
     6  H    2.199520   1.075675   3.028994   3.256233   3.315435
     7  H    2.138586   3.455277   1.086049   2.619239   2.060280
     8  C    2.269513   1.415538   3.701841   2.212015   4.612377
     9  C    2.260254   2.251110   3.615963   1.366571   4.783702
    10  H    2.113995   3.180696   2.694841   1.004878   4.000839
    11  C    3.239949   3.477168   2.551678   4.556247   1.453173
    12  H    3.450824   4.343189   2.067686   4.496251   1.082942
    13  H    3.311749   2.232582   4.720437   3.253611   5.532457
    14  H    3.274542   3.311543   4.550509   2.135294   5.771772
    15  C    3.338741   3.138434   3.196764   4.594905   2.507821
    16  H    4.289058   4.499676   3.461471   5.608560   2.184876
    17  O    3.875207   3.335002   4.084019   4.991756   3.602751
                    6          7          8          9         10
     6  H    0.000000
     7  H    4.004204   0.000000
     8  C    2.223928   4.336764   0.000000
     9  C    3.288489   3.940442   1.375487   0.000000
    10  H    4.191072   2.481092   3.180797   2.111990   0.000000
    11  C    3.088331   3.459723   4.854620   5.363832   5.039615
    12  H    4.354322   2.290301   5.619760   5.673730   4.596107
    13  H    2.689106   5.395183   1.077500   2.188502   4.189522
    14  H    4.325118   4.719810   2.235301   1.076647   2.508948
    15  C    2.603704   4.237635   4.391093   5.113197   5.237371
    16  H    3.991540   4.239296   5.891995   6.437608   6.048385
    17  O    2.730247   5.148555   4.349777   5.234130   5.726267
                   11         12         13         14         15
    11  C    0.000000
    12  H    2.118317   0.000000
    13  H    5.593097   6.565979   0.000000
    14  H    6.407597   6.612717   2.714662   0.000000
    15  C    1.319243   3.360160   4.959228   6.143128   0.000000
    16  H    1.085455   2.386703   6.584979   7.485194   2.000150
    17  O    2.477070   4.499606   4.703739   6.207144   1.158973
                   16         17
    16  H    0.000000
    17  O    3.033952   0.000000
 Symmetry turned off by external request.
 Stoichiometry    C8H7NO
 Framework group  C1[X(C8H7NO)]
 Deg. of freedom    45
 Full point group                 C1      NOp   1
 Rotational constants (GHZ):           2.4048608           0.9771155           0.7279430
 Standard basis: def2TZVP (5D, 7F)
 The following finite field(s) will be applied:
 An electric field of             -0.0021  0.0004  0.0013
   352 basis functions,   566 primitive gaussians,   402 cartesian basis functions
    35 alpha electrons       35 beta electrons
       nuclear repulsion energy       460.1335064993 Hartrees.
 NAtoms=   17 NActive=   17 NUniq=   17 SFac= 1.00D+00 NAtFMM=   60 NAOKFM=F Big=F
 Integral buffers will be    131072 words long.
 Raffenetti 2 integral format.
 Two-electron integral symmetry is turned off.
 One-electron integrals computed using PRISM.
   1 Symmetry operations used in ECPInt.
 ECPInt:  NShTT=    9591 NPrTT=   29644 LenC2=    9222 LenP2D=   22133.
 LDataN:  DoStor=T MaxTD1= 6 Len=  172
 NBasis=   352 RedAO= T EigKep=  3.30D-05  NBF=   352
 NBsUse=   352 1.00D-06 EigRej= -1.00D+00 NBFU=   352
 The nuclear repulsion energy is now       460.0714673310 hartrees.
 Initial guess from the checkpoint file:  "checkpoint.chk"
 B after Tr=    -0.001220   -0.004909   -0.000643
         Rot=    0.999998    0.000938    0.000755   -0.001789 Ang=   0.25 deg.
 Requested convergence on RMS density matrix=1.00D-08 within 128 cycles.
 Requested convergence on MAX density matrix=1.00D-06.
 Requested convergence on             energy=1.00D-06.
 No special actions if energy rises.
 SCF Done:  E(RB3LYP) =  -439.155280273     A.U. after    9 cycles
            NFock=  9  Conv=0.68D-08     -V/T= 2.0049
   1 Symmetry operations used in ECPInt.
 ECPInt:  NShTT=    9591 NPrTT=   29644 LenC2=    9222 LenP2D=   22133.
 LDataN:  DoStor=T MaxTD1= 7 Len=  274
 Calling FoFJK, ICntrl=      2127 FMM=F ISym2X=0 I1Cent= 0 IOpClX= 0 NMat=1 NMatS=1 NMatT=0.
 -------------------------------------------------------------------
 Center     Atomic                   Forces (Hartrees/Bohr)
 Number     Number              X              Y              Z
 -------------------------------------------------------------------
      1        6           0.000195626   -0.000291990    0.000155030
      2        6          -0.000526023    0.000079432    0.000004308
      3        6           0.000136587    0.000115242   -0.000328390
      4        7           0.000160598    0.000250480   -0.000151495
      5        6          -0.000156267    0.000098446    0.000110148
      6        1          -0.000046495    0.000007129   -0.000027190
      7        1           0.000022319   -0.000068194    0.000060397
      8        6          -0.000169890   -0.000090216   -0.000088057
      9        6           0.000001772    0.000068348    0.000331813
     10        1           0.000123394   -0.000135755   -0.000050376
     11        6           0.000091529    0.000063716    0.000089173
     12        1           0.000025164   -0.000047970   -0.000010688
     13        1           0.000034343   -0.000032081    0.000024363
     14        1           0.000046821   -0.000008755   -0.000040625
     15        6           0.000301196   -0.000107056   -0.000160853
     16        1          -0.000013023   -0.000033775   -0.000041231
     17        8          -0.000227653    0.000132999    0.000123672
 -------------------------------------------------------------------
 Cartesian Forces:  Max     0.000526023 RMS     0.000152212
 -----------------------------------------------------------------------------------------------
                       Internal Coordinate Forces (Hartree/Bohr or radian)
  Cent   Atom   N1       Length/X         N2         Alpha/Y        N3         Beta/Z          J
 -----------------------------------------------------------------------------------------------
      1  C 
      2  C        1  -0.000087(     1)
      3  C        1   0.000239(     2)      2  -0.000166(    17)
      4  N        1  -0.000356(     3)      2  -0.000210(    18)      3   0.000362(    32)     0
      5  C        3   0.000059(     4)      1  -0.000045(    19)      2  -0.000422(    33)     0
      6  H        2  -0.000054(     5)      1   0.000011(    20)      3   0.000323(    34)     0
      7  H        3  -0.000032(     6)      1  -0.000028(    21)      5  -0.000162(    35)     0
      8  C        2   0.000117(     7)      1  -0.000203(    22)      6   0.000310(    36)     0
      9  C        4   0.000202(     8)      1  -0.000470(    23)      2   0.000356(    37)     0
     10  H        4   0.000007(     9)      1  -0.000226(    24)      9   0.000234(    38)     0
     11  C        5   0.000110(    10)      3   0.000280(    25)      1  -0.000326(    39)     0
     12  H        5   0.000031(    11)      3  -0.000013(    26)     11  -0.000084(    40)     0
     13  H        8   0.000013(    12)      2  -0.000078(    27)      1  -0.000056(    41)     0
     14  H        9  -0.000042(    13)      4  -0.000091(    28)      1   0.000020(    42)     0
     15  C       11  -0.000042(    14)      5  -0.000204(    29)      3  -0.000171(    43)     0
     16  H       11  -0.000012(    15)      5  -0.000109(    30)     15  -0.000014(    44)     0
     17  O       15   0.000235(    16)     11   0.000367(    31)      5   0.000005(    45)     0
 -----------------------------------------------------------------------------------------------
 Internal  Forces:  Max     0.000469657 RMS     0.000203121

 GradGradGradGradGradGradGradGradGradGradGradGradGradGradGradGradGradGrad
 Berny optimization.
 Search for a local minimum.
 Step number   2 out of a maximum of   55
 All quantities printed in internal units (Hartrees-Bohrs-Radians)
 Update second derivatives using D2CorN and points    1    2
 DE= -1.38D-05 DEPred=-1.08D-05 R= 1.27D+00
 TightC=F SS=  1.41D+00  RLast= 1.05D-02 DXNew= 1.6818D-01 3.1417D-02
 Trust test= 1.27D+00 RLast= 1.05D-02 DXMaxT set to 1.00D-01
 ITU=  1  0
     Eigenvalues ---    0.02071   0.02709   0.03422   0.03994   0.05506
     Eigenvalues ---    0.07398   0.08571   0.09388   0.13321   0.14698
     Eigenvalues ---    0.15167   0.19792   0.20223   0.20360   0.21757
     Eigenvalues ---    0.23368   0.23706   0.23949   0.24846   0.28908
     Eigenvalues ---    0.30599   0.35241   0.35385   0.35623   0.36318
     Eigenvalues ---    0.36428   0.36502   0.37743   0.38064   0.38992
     Eigenvalues ---    0.44661   0.46847   0.48505   0.51332   0.53335
     Eigenvalues ---    0.53901   0.54342   0.55639   0.57379   0.61905
     Eigenvalues ---    0.70237   1.28620   1.74582   1.85832  16.31570
 RFO step:  Lambda=-1.24181123D-05 EMin= 2.07090437D-02
 Quartic linear search produced a step of  0.36872.
 Variable       Old X    -DE/DX   Delta X   Delta X   Delta X     New X
                                 (Linear)    (Quad)   (Total)
    R2        2.62346  -0.00009  -0.00026   0.00008  -0.00017   2.62329
    R3        2.73179   0.00024   0.00055   0.00084   0.00139   2.73319
    R4        2.60981  -0.00036  -0.00039  -0.00083  -0.00122   2.60859
    R5        2.54540   0.00006  -0.00021   0.00035   0.00015   2.54555
    R6        2.03273  -0.00005  -0.00006  -0.00025  -0.00031   2.03242
    R7        2.05234  -0.00003  -0.00013  -0.00010  -0.00023   2.05211
    R8        2.67498   0.00012   0.00071  -0.00013   0.00058   2.67556
    R9        2.58245   0.00020   0.00041   0.00041   0.00082   2.58326
   R10        1.89894   0.00001   0.00003   0.00002   0.00004   1.89899
   R11        2.74610   0.00011  -0.00058   0.00094   0.00036   2.74646
   R12        2.04646   0.00003  -0.00018   0.00028   0.00010   2.04656
   R13        2.03618   0.00001   0.00018  -0.00004   0.00014   2.03632
   R14        2.03457  -0.00004   0.00009  -0.00028  -0.00019   2.03438
   R15        2.49301  -0.00004  -0.00051   0.00025  -0.00026   2.49275
   R16        2.05121  -0.00001   0.00022  -0.00020   0.00002   2.05123
   R17        2.19014   0.00023   0.00037   0.00003   0.00040   2.19054
    A3        2.33898  -0.00017  -0.00035  -0.00064  -0.00098   2.33800
    A4        1.85283  -0.00021   0.00033   0.00054   0.00086   1.85369
    A5        2.27135  -0.00005  -0.00063   0.00037  -0.00025   2.27110
    A6        2.19828   0.00001  -0.00018   0.00035   0.00018   2.19845
    A7        1.99915  -0.00003   0.00035  -0.00026   0.00009   1.99924
    A8        1.88632  -0.00020  -0.00040  -0.00010  -0.00049   1.88583
    A9        1.93199  -0.00047   0.00028  -0.00070  -0.00042   1.93157
   A10        2.16413  -0.00023  -0.00100  -0.00046  -0.00146   2.16267
   A11        2.29205   0.00028   0.00009   0.00184   0.00193   2.29398
   A12        2.02815  -0.00001  -0.00002  -0.00105  -0.00107   2.02708
   A13        2.20995  -0.00008  -0.00034  -0.00027  -0.00061   2.20934
   A14        2.11869  -0.00009  -0.00003  -0.00062  -0.00066   2.11804
   A15        2.25960  -0.00020  -0.00058  -0.00027  -0.00085   2.25875
   A16        2.06046  -0.00011   0.00008  -0.00037  -0.00029   2.06017
   A17        3.08065   0.00037   0.00112   0.00216   0.00328   3.08393
    D4        3.06574   0.00036  -0.00132  -0.00438  -0.00570   3.06004
    D5       -0.43138  -0.00042  -0.00112  -0.01137  -0.01249  -0.44387
    D6        0.01053   0.00032   0.00066   0.00510   0.00576   0.01629
    D7        3.12593  -0.00016  -0.00075  -0.00107  -0.00183   3.12410
    D8       -3.08571   0.00031   0.00036   0.00198   0.00234  -3.08337
    D9        0.01428   0.00036  -0.00012  -0.00153  -0.00165   0.01264
   D10        3.07846   0.00023   0.00159   0.00683   0.00842   3.08688
   D11       -0.08924  -0.00033  -0.00002  -0.00290  -0.00293  -0.09216
   D12       -3.12863  -0.00008  -0.00056  -0.00089  -0.00145  -3.13008
   D13        3.13180  -0.00006  -0.00055  -0.00421  -0.00476   3.12704
   D14        3.12814   0.00002   0.00133   0.00365   0.00498   3.13312
   D15       -0.31216  -0.00017  -0.00017  -0.00499  -0.00516  -0.31732
   D16       -3.02602  -0.00001   0.00004   0.00092   0.00096  -3.02506
   D17        3.08780   0.00001   0.00004   0.00064   0.00069   3.08848
         Item               Value     Threshold  Converged?
 Maximum Force            0.000470     0.000450     NO 
 RMS     Force            0.000203     0.000300     YES
 Maximum Displacement     0.012491     0.001800     NO 
 RMS     Displacement     0.003044     0.001200     NO 
 Predicted change in Energy=-6.392055D-06
 GradGradGradGradGradGradGradGradGradGradGradGradGradGradGradGradGradGrad

 ---------------------------------------------------------------------------------------------------
                            Z-MATRIX (ANGSTROMS AND DEGREES)
   CD    Cent   Atom    N1       Length/X        N2       Alpha/Y        N3        Beta/Z          J
 ---------------------------------------------------------------------------------------------------
      1      1  C 
      2      2  C        1   1.388186(     1)
      3      3  C        1   1.446341(     2)      2  133.957(    17)
      4      4  N        1   1.380406(     3)      2  106.209(    18)      3  175.327(    32)      0
      5      5  C        3   1.347046(     4)      1  130.124(    19)      2  -25.432(    33)      0
      6      6  H        2   1.075510(     5)      1  125.962(    20)      3    0.933(    34)      0
      7      7  H        3   1.085928(     6)      1  114.548(    21)      5  178.998(    35)      0
      8      8  C        2   1.415843(     7)      1  108.050(    22)      6 -176.664(    36)      0
      9      9  C        4   1.367003(     8)      1  110.671(    23)      2    0.724(    37)      0
     10     10  H        4   1.004900(     9)      1  123.912(    24)      9  176.865(    38)      0
     11     11  C        5   1.453362(    10)      3  131.436(    25)      1   -5.281(    39)      0
     12     12  H        5   1.082993(    11)      3  116.143(    26)     11 -179.341(    40)      0
     13     13  H        8   1.077575(    12)      2  126.586(    27)      1  179.166(    41)      0
     14     14  H        9   1.076548(    13)      4  121.355(    28)      1  179.515(    42)      0
     15     15  C       11   1.319105(    14)      5  129.417(    29)      3  -18.181(    43)      0
     16     16  H       11   1.085465(    15)      5  118.039(    30)     15 -173.323(    44)      0
     17     17  O       15   1.159183(    16)     11  176.696(    31)      5  176.957(    45)      0
 ---------------------------------------------------------------------------------------------------
                         Z-Matrix orientation:                         
 ---------------------------------------------------------------------
 Center     Atomic      Atomic             Coordinates (Angstroms)
 Number     Number       Type             X           Y           Z
 ---------------------------------------------------------------------
      1          6           0        0.000000    0.000000    0.000000
      2          6           0        0.000000    0.000000    1.388186
      3          6           0        1.041156    0.000000   -1.003939
      4          7           0       -1.321130   -0.107986   -0.385324
      5          6           0        2.311741    0.442328   -0.936899
      6          1           0        0.870408    0.014179    2.019781
      7          1           0        0.751971   -0.439729   -1.953808
      8          6           0       -1.342430   -0.100216    1.826878
      9          6           0       -2.140082   -0.158711    0.708039
     10          1           0       -1.628750   -0.097934   -1.341929
     11          6           0        3.030158    1.148977    0.110375
     12          1           0        2.927106    0.260100   -1.809248
     13          1           0       -1.683135   -0.138279    2.848464
     14          1           0       -3.208849   -0.235726    0.604294
     15          6           0        2.558420    1.825540    1.139824
     16          1           0        4.108047    1.238372    0.018735
     17          8           0        2.206904    2.430001    2.064361
 ---------------------------------------------------------------------
                    Distance matrix (angstroms):
                    1          2          3          4          5
     1  C    0.000000
     2  C    1.388186   0.000000
     3  C    1.446341   2.608883   0.000000
     4  N    1.380406   2.214133   2.444329   0.000000
     5  C    2.533294   3.308447   1.347046   3.715485   0.000000
     6  H    2.199392   1.075510   3.028571   3.256116   3.317033
     7  H    2.139203   3.453657   1.085928   2.620676   2.060342
     8  C    2.269282   1.415843   3.702033   2.212318   4.613651
     9  C    2.259748   2.251165   3.616122   1.367003   4.783910
    10  H    2.112627   3.180558   2.692996   1.004900   3.997924
    11  C    3.242559   3.483505   2.553032   4.556246   1.453362
    12  H    3.450939   4.342717   2.067119   4.495616   1.082993
    13  H    3.311467   2.232594   4.720371   3.254128   5.533996
    14  H    3.273751   3.311611   4.550223   2.135215   5.771650
    15  C    3.343248   3.152743   3.198500   4.595161   2.507370
    16  H    4.290684   4.503889   3.461972   5.608200   2.184866
    17  O    3.877747   3.351499   4.083913   4.988924   3.601305
                    6          7          8          9         10
     6  H    0.000000
     7  H    4.001183   0.000000
     8  C    2.224173   4.335362   0.000000
     9  C    3.288405   3.940606   1.375308   0.000000
    10  H    4.190400   2.481744   3.181716   2.113652   0.000000
    11  C    3.098083   3.460488   4.860698   5.366436   5.036804
    12  H    4.353383   2.289513   5.619624   5.673494   4.593735
    13  H    2.688967   5.392813   1.077575   2.188752   4.190940
    14  H    4.325088   4.719491   2.235306   1.076548   2.510674
    15  C    2.627686   4.238545   4.404226   5.118555   5.233664
    16  H    3.998142   4.239127   5.896516   6.439418   6.045491
    17  O    2.761233   5.147608   4.365337   5.238066   5.718873
                   11         12         13         14         15
    11  C    0.000000
    12  H    2.117941   0.000000
    13  H    5.600830   6.565616   0.000000
    14  H    6.409880   6.612184   2.715437   0.000000
    15  C    1.319105   3.359101   4.976628   6.147926   0.000000
    16  H    1.085465   2.386034   6.590928   7.486843   2.000738
    17  O    2.477263   4.498001   4.726869   6.210337   1.159183
                   16         17
    16  H    0.000000
    17  O    3.036266   0.000000
 Symmetry turned off by external request.
 Stoichiometry    C8H7NO
 Framework group  C1[X(C8H7NO)]
 Deg. of freedom    45
 Full point group                 C1      NOp   1
 Rotational constants (GHZ):           2.4045895           0.9738692           0.7277005
 Standard basis: def2TZVP (5D, 7F)
 The following finite field(s) will be applied:
 An electric field of             -0.0021  0.0004  0.0013
   352 basis functions,   566 primitive gaussians,   402 cartesian basis functions
    35 alpha electrons       35 beta electrons
       nuclear repulsion energy       459.9404776118 Hartrees.
 NAtoms=   17 NActive=   17 NUniq=   17 SFac= 1.00D+00 NAtFMM=   60 NAOKFM=F Big=F
 Integral buffers will be    131072 words long.
 Raffenetti 2 integral format.
 Two-electron integral symmetry is turned off.
 One-electron integrals computed using PRISM.
   1 Symmetry operations used in ECPInt.
 ECPInt:  NShTT=    9591 NPrTT=   29644 LenC2=    9221 LenP2D=   22130.
 LDataN:  DoStor=T MaxTD1= 6 Len=  172
 NBasis=   352 RedAO= T EigKep=  3.32D-05  NBF=   352
 NBsUse=   352 1.00D-06 EigRej= -1.00D+00 NBFU=   352
 The nuclear repulsion energy is now       459.8791709964 hartrees.
 Initial guess from the checkpoint file:  "checkpoint.chk"
 B after Tr=     0.002759   -0.002153   -0.003145
         Rot=    0.999973    0.004917    0.000090   -0.005442 Ang=   0.84 deg.
 Requested convergence on RMS density matrix=1.00D-08 within 128 cycles.
 Requested convergence on MAX density matrix=1.00D-06.
 Requested convergence on             energy=1.00D-06.
 No special actions if energy rises.
 SCF Done:  E(RB3LYP) =  -439.155282311     A.U. after   10 cycles
            NFock= 10  Conv=0.56D-08     -V/T= 2.0049
   1 Symmetry operations used in ECPInt.
 ECPInt:  NShTT=    9591 NPrTT=   29644 LenC2=    9221 LenP2D=   22130.
 LDataN:  DoStor=T MaxTD1= 7 Len=  274
 Calling FoFJK, ICntrl=      2127 FMM=F ISym2X=0 I1Cent= 0 IOpClX= 0 NMat=1 NMatS=1 NMatT=0.
 -------------------------------------------------------------------
 Center     Atomic                   Forces (Hartrees/Bohr)
 Number     Number              X              Y              Z
 -------------------------------------------------------------------
      1        6           0.000841284   -0.000254363    0.000001066
      2        6          -0.000825942   -0.000022875   -0.000081556
      3        6           0.000190579    0.000415607    0.000161329
      4        7          -0.000017726    0.000128261    0.000091162
      5        6          -0.000170427   -0.000098606   -0.000120223
      6        1           0.000202702    0.000095571    0.000028111
      7        1           0.000012213   -0.000101790   -0.000005757
      8        6           0.000112346    0.000055153   -0.000053359
      9        6          -0.000057031   -0.000221663   -0.000073726
     10        1          -0.000091401   -0.000064112    0.000060551
     11        6           0.000187224    0.000017458    0.000091273
     12        1           0.000024292    0.000032668   -0.000045079
     13        1          -0.000025808    0.000118316   -0.000047911
     14        1          -0.000036750    0.000087022    0.000009614
     15        6          -0.000286229    0.000003860    0.000246889
     16        1          -0.000044828   -0.000023018   -0.000038121
     17        8          -0.000014501   -0.000167490   -0.000224261
 -------------------------------------------------------------------
 Cartesian Forces:  Max     0.000841284 RMS     0.000209013
 -----------------------------------------------------------------------------------------------
                       Internal Coordinate Forces (Hartree/Bohr or radian)
  Cent   Atom   N1       Length/X         N2         Alpha/Y        N3         Beta/Z          J
 -----------------------------------------------------------------------------------------------
      1  C 
      2  C        1  -0.000155(     1)
      3  C        1  -0.000119(     2)      2  -0.000843(    17)
      4  N        1   0.000175(     3)      2  -0.000290(    18)      3  -0.000192(    32)     0
      5  C        3  -0.000369(     4)      1  -0.001148(    19)      2   0.000193(    33)     0
      6  H        2   0.000182(     5)      1  -0.000198(    20)      3  -0.000350(    34)     0
      7  H        3   0.000043(     6)      1  -0.000011(    21)      5  -0.000174(    35)     0
      8  C        2  -0.000126(     7)      1  -0.000239(    22)      6  -0.000502(    36)     0
      9  C        4   0.000010(     8)      1   0.000289(    23)      2  -0.000188(    37)     0
     10  H        4  -0.000030(     9)      1   0.000212(    24)      9   0.000083(    38)     0
     11  C        5  -0.000106(    10)      3  -0.001402(    25)      1   0.000514(    39)     0
     12  H        5   0.000045(    11)      3   0.000027(    26)     11   0.000072(    40)     0
     13  H        8  -0.000041(    12)      2   0.000066(    27)      1   0.000195(    41)     0
     14  H        9   0.000029(    13)      4   0.000027(    28)      1  -0.000155(    42)     0
     15  C       11   0.000041(    14)      5  -0.000985(    29)      3   0.000313(    43)     0
     16  H       11  -0.000043(    15)      5  -0.000094(    30)     15   0.000008(    44)     0
     17  O       15  -0.000262(    16)     11   0.000214(    31)      5  -0.000003(    45)     0
 -----------------------------------------------------------------------------------------------
 Internal  Forces:  Max     0.001401630 RMS     0.000383775

 GradGradGradGradGradGradGradGradGradGradGradGradGradGradGradGradGradGrad
 Berny optimization.
 Search for a local minimum.
 Step number   3 out of a maximum of   55
 All quantities printed in internal units (Hartrees-Bohrs-Radians)
 Update second derivatives using D2CorN and points    1    2    3
 DE= -2.04D-06 DEPred=-6.39D-06 R= 3.19D-01
 Trust test= 3.19D-01 RLast= 2.04D-02 DXMaxT set to 1.00D-01
 ITU=  0  1  0
     Eigenvalues ---    0.01932   0.02681   0.03677   0.04004   0.05524
     Eigenvalues ---    0.07766   0.08587   0.09278   0.13471   0.14711
     Eigenvalues ---    0.15049   0.19769   0.20226   0.20361   0.21843
     Eigenvalues ---    0.23706   0.23837   0.24032   0.24676   0.28968
     Eigenvalues ---    0.30617   0.35243   0.35389   0.35628   0.36321
     Eigenvalues ---    0.36429   0.36520   0.37612   0.38016   0.39005
     Eigenvalues ---    0.44671   0.46848   0.48506   0.51336   0.53244
     Eigenvalues ---    0.53907   0.54401   0.55654   0.57712   0.61924
     Eigenvalues ---    0.70465   1.28652   1.74637   1.85836  16.31573
 RFO step:  Lambda=-8.35004705D-06 EMin= 1.93242722D-02
 Quartic linear search produced a step of -0.41304.
 Variable       Old X    -DE/DX   Delta X   Delta X   Delta X     New X
                                 (Linear)    (Quad)   (Total)
    R2        2.62329  -0.00015   0.00007  -0.00034  -0.00027   2.62302
    R3        2.73319  -0.00012  -0.00058   0.00049  -0.00008   2.73310
    R4        2.60859   0.00018   0.00050  -0.00044   0.00007   2.60866
    R5        2.54555  -0.00037  -0.00006  -0.00054  -0.00060   2.54495
    R6        2.03242   0.00018   0.00013   0.00029   0.00042   2.03284
    R7        2.05211   0.00004   0.00009  -0.00001   0.00008   2.05219
    R8        2.67556  -0.00013  -0.00024   0.00019  -0.00005   2.67550
    R9        2.58326   0.00001  -0.00034   0.00036   0.00002   2.58328
   R10        1.89899  -0.00003  -0.00002  -0.00004  -0.00006   1.89893
   R11        2.74646  -0.00011  -0.00015  -0.00006  -0.00021   2.74625
   R12        2.04656   0.00004  -0.00004   0.00018   0.00014   2.04670
   R13        2.03632  -0.00004  -0.00006  -0.00003  -0.00009   2.03623
   R14        2.03438   0.00003   0.00008  -0.00003   0.00005   2.03443
   R15        2.49275   0.00004   0.00011  -0.00008   0.00003   2.49278
   R16        2.05123  -0.00004  -0.00001  -0.00011  -0.00012   2.05111
   R17        2.19054  -0.00026  -0.00016   0.00002  -0.00014   2.19040
    A3        2.33800  -0.00084   0.00041  -0.00168  -0.00128   2.33672
    A4        1.85369  -0.00029  -0.00036   0.00041   0.00005   1.85375
    A5        2.27110  -0.00115   0.00010  -0.00252  -0.00241   2.26869
    A6        2.19845  -0.00020  -0.00007  -0.00040  -0.00047   2.19799
    A7        1.99924  -0.00001  -0.00004   0.00118   0.00115   2.00038
    A8        1.88583  -0.00024   0.00020  -0.00029  -0.00008   1.88574
    A9        1.93157   0.00029   0.00017  -0.00012   0.00005   1.93163
   A10        2.16267   0.00021   0.00060  -0.00020   0.00040   2.16307
   A11        2.29398  -0.00140  -0.00080  -0.00218  -0.00298   2.29100
   A12        2.02708   0.00003   0.00044   0.00093   0.00137   2.02845
   A13        2.20934   0.00007   0.00025  -0.00025  -0.00000   2.20934
   A14        2.11804   0.00003   0.00027  -0.00018   0.00009   2.11812
   A15        2.25875  -0.00098   0.00035  -0.00268  -0.00233   2.25642
   A16        2.06017  -0.00009   0.00012   0.00048   0.00060   2.06077
   A17        3.08393   0.00021  -0.00135   0.00253   0.00117   3.08510
    D4        3.06004  -0.00019   0.00235  -0.00387  -0.00152   3.05852
    D5       -0.44387   0.00019   0.00516  -0.00715  -0.00199  -0.44586
    D6        0.01629  -0.00035  -0.00238   0.00524   0.00286   0.01915
    D7        3.12410  -0.00017   0.00076  -0.00091  -0.00016   3.12394
    D8       -3.08337  -0.00050  -0.00097  -0.00199  -0.00296  -3.08633
    D9        0.01264  -0.00019   0.00068  -0.00047   0.00021   0.01284
   D10        3.08688   0.00008  -0.00348   0.00654   0.00306   3.08994
   D11       -0.09216   0.00051   0.00121   0.00244   0.00364  -0.08852
   D12       -3.13008   0.00007   0.00060  -0.00207  -0.00147  -3.13155
   D13        3.12704   0.00019   0.00196   0.00042   0.00238   3.12942
   D14        3.13312  -0.00016  -0.00206   0.00241   0.00035   3.13347
   D15       -0.31732   0.00031   0.00213  -0.00066   0.00147  -0.31585
   D16       -3.02506   0.00001  -0.00040  -0.00004  -0.00043  -3.02549
   D17        3.08848  -0.00000  -0.00028   0.00029   0.00001   3.08849
         Item               Value     Threshold  Converged?
 Maximum Force            0.001402     0.000450     NO 
 RMS     Force            0.000384     0.000300     NO 
 Maximum Displacement     0.003645     0.001800     NO 
 RMS     Displacement     0.001367     0.001200     NO 
 Predicted change in Energy=-8.304989D-06
 GradGradGradGradGradGradGradGradGradGradGradGradGradGradGradGradGradGrad

 ---------------------------------------------------------------------------------------------------
                            Z-MATRIX (ANGSTROMS AND DEGREES)
   CD    Cent   Atom    N1       Length/X        N2       Alpha/Y        N3        Beta/Z          J
 ---------------------------------------------------------------------------------------------------
      1      1  C 
      2      2  C        1   1.388043(     1)
      3      3  C        1   1.446296(     2)      2  133.884(    17)
      4      4  N        1   1.380442(     3)      2  106.212(    18)      3  175.240(    32)      0
      5      5  C        3   1.346727(     4)      1  129.986(    19)      2  -25.546(    33)      0
      6      6  H        2   1.075734(     5)      1  125.935(    20)      3    1.097(    34)      0
      7      7  H        3   1.085973(     6)      1  114.614(    21)      5  178.989(    35)      0
      8      8  C        2   1.415816(     7)      1  108.045(    22)      6 -176.833(    36)      0
      9      9  C        4   1.367013(     8)      1  110.674(    23)      2    0.736(    37)      0
     10     10  H        4   1.004871(     9)      1  123.935(    24)      9  177.041(    38)      0
     11     11  C        5   1.453251(    10)      3  131.265(    25)      1   -5.072(    39)      0
     12     12  H        5   1.083066(    11)      3  116.222(    26)     11 -179.425(    40)      0
     13     13  H        8   1.077528(    12)      2  126.586(    27)      1  179.303(    41)      0
     14     14  H        9   1.076572(    13)      4  121.360(    28)      1  179.535(    42)      0
     15     15  C       11   1.319120(    14)      5  129.284(    29)      3  -18.097(    43)      0
     16     16  H       11   1.085401(    15)      5  118.073(    30)     15 -173.348(    44)      0
     17     17  O       15   1.159108(    16)     11  176.763(    31)      5  176.958(    45)      0
 ---------------------------------------------------------------------------------------------------
                         Z-Matrix orientation:                         
 ---------------------------------------------------------------------
 Center     Atomic      Atomic             Coordinates (Angstroms)
 Number     Number       Type             X           Y           Z
 ---------------------------------------------------------------------
      1          6           0        0.000000    0.000000    0.000000
      2          6           0        0.000000    0.000000    1.388043
      3          6           0        1.042406    0.000000   -1.002578
      4          7           0       -1.320979   -0.109990   -0.385404
      5          6           0        2.311506    0.444977   -0.931481
      6          1           0        0.870841    0.016675    2.019361
      7          1           0        0.756214   -0.441414   -1.952622
      8          6           0       -1.342452   -0.100081    1.826613
      9          6           0       -2.139998   -0.161703    0.707875
     10          1           0       -1.628679   -0.103153   -1.341981
     11          6           0        3.022300    1.150321    0.121705
     12          1           0        2.930848    0.265955   -1.801767
     13          1           0       -1.683375   -0.136056    2.848153
     14          1           0       -3.208647   -0.240620    0.604107
     15          6           0        2.540361    1.819658    1.151171
     16          1           0        4.100140    1.244972    0.035704
     17          8           0        2.178439    2.417819    2.075697
 ---------------------------------------------------------------------
                    Distance matrix (angstroms):
                    1          2          3          4          5
     1  C    0.000000
     2  C    1.388043   0.000000
     3  C    1.446296   2.608003   0.000000
     4  N    1.380442   2.214091   2.445115   0.000000
     5  C    2.531545   3.304733   1.346727   3.714988   0.000000
     6  H    2.199195   1.075734   3.026850   3.256227   3.311559
     7  H    2.139963   3.453513   1.085973   2.623118   2.060910
     8  C    2.269076   1.415816   3.701605   2.212144   4.610377
     9  C    2.259829   2.251303   3.616558   1.367013   4.782409
    10  H    2.112853   3.180608   2.694537   1.004871   3.999252
    11  C    3.236101   3.472917   2.550928   4.550782   1.453251
    12  H    3.450648   4.339988   2.067765   4.497272   1.083066
    13  H    3.311229   2.232528   4.719800   3.253905   5.530127
    14  H    3.273876   3.311778   4.550911   2.135296   5.770630
    15  C    3.330133   3.133800   3.192751   4.581982   2.505906
    16  H    4.285135   4.493321   3.460885   5.603730   2.185098
    17  O    3.860047   3.326306   4.075806   4.969181   3.599018
                    6          7          8          9         10
     6  H    0.000000
     7  H    3.999954   0.000000
     8  C    2.224735   4.336303   0.000000
     9  C    3.288915   3.942655   1.375300   0.000000
    10  H    4.190534   2.484959   3.181497   2.113477   0.000000
    11  C    3.084644   3.460000   4.849874   5.358575   5.034400
    12  H    4.348194   2.291759   5.617848   5.674035   4.597492
    13  H    2.689654   5.393726   1.077528   2.188595   4.190620
    14  H    4.325664   4.722003   2.235387   1.076572   2.510470
    15  C    2.606108   4.234284   4.383817   5.101771   5.224357
    16  H    3.983966   4.240187   5.885434   6.431942   6.044405
    17  O    2.734680   5.140554   4.335727   5.212846   5.703505
                   11         12         13         14         15
    11  C    0.000000
    12  H    2.119012   0.000000
    13  H    5.588529   6.563111   0.000000
    14  H    6.402510   6.613491   2.715350   0.000000
    15  C    1.319120   3.359512   4.954242   6.131486   0.000000
    16  H    1.085401   2.387890   6.577701   7.479869   2.001860
    17  O    2.477244   4.497929   4.693887   6.184947   1.159108
                   16         17
    16  H    0.000000
    17  O    3.038104   0.000000
 Symmetry turned off by external request.
 Stoichiometry    C8H7NO
 Framework group  C1[X(C8H7NO)]
 Deg. of freedom    45
 Full point group                 C1      NOp   1
 Rotational constants (GHZ):           2.4024484           0.9805381           0.7309259
 Standard basis: def2TZVP (5D, 7F)
 The following finite field(s) will be applied:
 An electric field of             -0.0021  0.0004  0.0013
   352 basis functions,   566 primitive gaussians,   402 cartesian basis functions
    35 alpha electrons       35 beta electrons
       nuclear repulsion energy       460.3807881587 Hartrees.
 NAtoms=   17 NActive=   17 NUniq=   17 SFac= 1.00D+00 NAtFMM=   60 NAOKFM=F Big=F
 Integral buffers will be    131072 words long.
 Raffenetti 2 integral format.
 Two-electron integral symmetry is turned off.
 One-electron integrals computed using PRISM.
   1 Symmetry operations used in ECPInt.
 ECPInt:  NShTT=    9591 NPrTT=   29644 LenC2=    9222 LenP2D=   22143.
 LDataN:  DoStor=T MaxTD1= 6 Len=  172
 NBasis=   352 RedAO= T EigKep=  3.31D-05  NBF=   352
 NBsUse=   352 1.00D-06 EigRej= -1.00D+00 NBFU=   352
 The nuclear repulsion energy is now       460.3215519418 hartrees.
 Initial guess from the checkpoint file:  "checkpoint.chk"
 B after Tr=    -0.006200   -0.003954    0.003103
         Rot=    0.999999   -0.000848    0.001253   -0.000799 Ang=  -0.20 deg.
 Requested convergence on RMS density matrix=1.00D-08 within 128 cycles.
 Requested convergence on MAX density matrix=1.00D-06.
 Requested convergence on             energy=1.00D-06.
 No special actions if energy rises.
 SCF Done:  E(RB3LYP) =  -439.155285908     A.U. after    9 cycles
            NFock=  9  Conv=0.52D-08     -V/T= 2.0049
   1 Symmetry operations used in ECPInt.
 ECPInt:  NShTT=    9591 NPrTT=   29644 LenC2=    9222 LenP2D=   22143.
 LDataN:  DoStor=T MaxTD1= 7 Len=  274
 Calling FoFJK, ICntrl=      2127 FMM=F ISym2X=0 I1Cent= 0 IOpClX= 0 NMat=1 NMatS=1 NMatT=0.
 -------------------------------------------------------------------
 Center     Atomic                   Forces (Hartrees/Bohr)
 Number     Number              X              Y              Z
 -------------------------------------------------------------------
      1        6           0.000775003   -0.000598766   -0.000079878
      2        6          -0.000806230    0.000187732    0.000069216
      3        6          -0.000106659    0.000335554   -0.000001104
      4        7          -0.000000920    0.000044315    0.000015283
      5        6           0.000006014   -0.000167903   -0.000076529
      6        1          -0.000113821   -0.000031036   -0.000021481
      7        1          -0.000010274    0.000014055    0.000002601
      8        6           0.000084675   -0.000147775    0.000042710
      9        6           0.000029184   -0.000047812   -0.000072339
     10        1          -0.000061024   -0.000044759    0.000026074
     11        6           0.000268971    0.000133576    0.000019791
     12        1           0.000017505    0.000018299    0.000051179
     13        1          -0.000024464    0.000053901   -0.000009640
     14        1          -0.000016705    0.000123196    0.000012549
     15        6          -0.000115321    0.000151716    0.000094388
     16        1          -0.000049487   -0.000005066    0.000017979
     17        8           0.000123552   -0.000019226   -0.000090800
 -------------------------------------------------------------------
 Cartesian Forces:  Max     0.000806230 RMS     0.000201031
 -----------------------------------------------------------------------------------------------
                       Internal Coordinate Forces (Hartree/Bohr or radian)
  Cent   Atom   N1       Length/X         N2         Alpha/Y        N3         Beta/Z          J
 -----------------------------------------------------------------------------------------------
      1  C 
      2  C        1   0.000081(     1)
      3  C        1   0.000085(     2)      2   0.000180(    17)
      4  N        1   0.000047(     3)      2  -0.000090(    18)      3   0.000537(    32)     0
      5  C        3   0.000274(     4)      1   0.000676(    19)      2  -0.000440(    33)     0
      6  H        2  -0.000105(     5)      1   0.000101(    20)      3   0.000166(    34)     0
      7  H        3  -0.000005(     6)      1  -0.000016(    21)      5   0.000028(    35)     0
      8  C        2  -0.000040(     7)      1   0.000083(    22)      6   0.000213(    36)     0
      9  C        4  -0.000058(     8)      1   0.000023(    23)      2   0.000287(    37)     0
     10  H        4  -0.000006(     9)      1   0.000133(    24)      9   0.000060(    38)     0
     11  C        5   0.000268(    10)      3   0.000780(    25)      1  -0.000587(    39)     0
     12  H        5  -0.000034(    11)      3   0.000092(    26)     11  -0.000016(    40)     0
     13  H        8  -0.000003(    12)      2   0.000046(    27)      1   0.000091(    41)     0
     14  H        9   0.000006(    13)      4   0.000029(    28)      1  -0.000215(    42)     0
     15  C       11   0.000067(    14)      5   0.000291(    29)      3  -0.000274(    43)     0
     16  H       11  -0.000051(    15)      5   0.000024(    30)     15  -0.000014(    44)     0
     17  O       15  -0.000121(    16)     11  -0.000195(    31)      5   0.000005(    45)     0
 -----------------------------------------------------------------------------------------------
 Internal  Forces:  Max     0.000780419 RMS     0.000240142

 GradGradGradGradGradGradGradGradGradGradGradGradGradGradGradGradGradGrad
 Berny optimization.
 Search for a local minimum.
 Step number   4 out of a maximum of   55
 All quantities printed in internal units (Hartrees-Bohrs-Radians)
 Update second derivatives using D2CorN and points    1    2    3    4
 DE= -3.60D-06 DEPred=-8.30D-06 R= 4.33D-01
 Trust test= 4.33D-01 RLast= 9.17D-03 DXMaxT set to 1.00D-01
 ITU=  0  0  1  0
     Eigenvalues ---    0.00060   0.02659   0.03733   0.04009   0.05624
     Eigenvalues ---    0.07931   0.08932   0.09148   0.14068   0.14837
     Eigenvalues ---    0.15014   0.19799   0.20230   0.20383   0.21985
     Eigenvalues ---    0.23693   0.23841   0.24524   0.27577   0.29028
     Eigenvalues ---    0.30613   0.35243   0.35391   0.35633   0.36321
     Eigenvalues ---    0.36429   0.36557   0.37914   0.38113   0.39292
     Eigenvalues ---    0.44682   0.46848   0.48506   0.51336   0.53309
     Eigenvalues ---    0.53871   0.54535   0.55728   0.61916   0.61942
     Eigenvalues ---    0.71633   1.28648   1.74985   1.85887  16.31575
 RFO step:  Lambda=-4.29637673D-05 EMin= 5.98698427D-04
 Quartic linear search produced a step of -0.33432.
 Maximum step size (   0.100) exceeded in Quadratic search.
    -- Step size scaled by   0.396
 Variable       Old X    -DE/DX   Delta X   Delta X   Delta X     New X
                                 (Linear)    (Quad)   (Total)
    R2        2.62302   0.00008   0.00009  -0.00036  -0.00027   2.62275
    R3        2.73310   0.00008   0.00003   0.00338   0.00341   2.73651
    R4        2.60866   0.00005  -0.00002  -0.00123  -0.00126   2.60740
    R5        2.54495   0.00027   0.00020   0.00075   0.00095   2.54590
    R6        2.03284  -0.00011  -0.00014  -0.00060  -0.00074   2.03210
    R7        2.05219  -0.00001  -0.00003  -0.00025  -0.00028   2.05191
    R8        2.67550  -0.00004   0.00002   0.00060   0.00061   2.67612
    R9        2.58328  -0.00006  -0.00001   0.00097   0.00097   2.58425
   R10        1.89893  -0.00001   0.00002  -0.00017  -0.00015   1.89878
   R11        2.74625   0.00027   0.00007   0.00311   0.00318   2.74943
   R12        2.04670  -0.00003  -0.00005  -0.00003  -0.00008   2.04662
   R13        2.03623  -0.00000   0.00003   0.00002   0.00005   2.03629
   R14        2.03443   0.00001  -0.00002   0.00003   0.00002   2.03444
   R15        2.49278   0.00007  -0.00001  -0.00001  -0.00002   2.49276
   R16        2.05111  -0.00005   0.00004  -0.00094  -0.00090   2.05021
   R17        2.19040  -0.00012   0.00005  -0.00022  -0.00017   2.19023
    A3        2.33672   0.00018   0.00043  -0.00390  -0.00348   2.33324
    A4        1.85375  -0.00009  -0.00002   0.00020   0.00018   1.85393
    A5        2.26869   0.00068   0.00081   0.00002   0.00083   2.26951
    A6        2.19799   0.00010   0.00016   0.00006   0.00022   2.19820
    A7        2.00038  -0.00002  -0.00038   0.00082   0.00043   2.00082
    A8        1.88574   0.00008   0.00003  -0.00022  -0.00019   1.88555
    A9        1.93163   0.00002  -0.00002   0.00028   0.00026   1.93189
   A10        2.16307   0.00013  -0.00013   0.00019   0.00006   2.16313
   A11        2.29100   0.00078   0.00100   0.00311   0.00411   2.29511
   A12        2.02845   0.00009  -0.00046   0.00067   0.00021   2.02866
   A13        2.20934   0.00005   0.00000  -0.00036  -0.00036   2.20898
   A14        2.11812   0.00003  -0.00003  -0.00020  -0.00023   2.11790
   A15        2.25642   0.00029   0.00078  -0.00566  -0.00488   2.25154
   A16        2.06077   0.00002  -0.00020   0.00136   0.00116   2.06193
   A17        3.08510  -0.00019  -0.00039   0.00658   0.00619   3.09128
    D4        3.05852   0.00054   0.00051  -0.02558  -0.02507   3.03345
    D5       -0.44586  -0.00044   0.00067  -0.07386  -0.07320  -0.51906
    D6        0.01915   0.00017  -0.00096   0.03855   0.03760   0.05675
    D7        3.12394   0.00003   0.00005   0.00685   0.00690   3.13085
    D8       -3.08633   0.00021   0.00099  -0.02026  -0.01927  -3.10560
    D9        0.01284   0.00029  -0.00007   0.00420   0.00413   0.01697
   D10        3.08994   0.00006  -0.00102   0.03431   0.03329   3.12323
   D11       -0.08852  -0.00059  -0.00122   0.00092  -0.00030  -0.08882
   D12       -3.13155  -0.00002   0.00049  -0.00902  -0.00853  -3.14008
   D13        3.12942   0.00009  -0.00080   0.01336   0.01256   3.14199
   D14        3.13347  -0.00022  -0.00012   0.00267   0.00255   3.13602
   D15       -0.31585  -0.00027  -0.00049  -0.01877  -0.01926  -0.33511
   D16       -3.02549  -0.00001   0.00014  -0.00074  -0.00060  -3.02609
   D17        3.08849   0.00000  -0.00000   0.00104   0.00104   3.08953
         Item               Value     Threshold  Converged?
 Maximum Force            0.000780     0.000450     NO 
 RMS     Force            0.000240     0.000300     YES
 Maximum Displacement     0.073195     0.001800     NO 
 RMS     Displacement     0.014662     0.001200     NO 
 Predicted change in Energy=-2.794741D-05
 GradGradGradGradGradGradGradGradGradGradGradGradGradGradGradGradGradGrad

 ---------------------------------------------------------------------------------------------------
                            Z-MATRIX (ANGSTROMS AND DEGREES)
   CD    Cent   Atom    N1       Length/X        N2       Alpha/Y        N3        Beta/Z          J
 ---------------------------------------------------------------------------------------------------
      1      1  C 
      2      2  C        1   1.387902(     1)
      3      3  C        1   1.448101(     2)      2  133.685(    17)
      4      4  N        1   1.379778(     3)      2  106.222(    18)      3  173.804(    32)      0
      5      5  C        3   1.347232(     4)      1  130.033(    19)      2  -29.740(    33)      0
      6      6  H        2   1.075341(     5)      1  125.948(    20)      3    3.251(    34)      0
      7      7  H        3   1.085824(     6)      1  114.638(    21)      5  179.384(    35)      0
      8      8  C        2   1.416141(     7)      1  108.034(    22)      6 -177.938(    36)      0
      9      9  C        4   1.367525(     8)      1  110.689(    23)      2    0.972(    37)      0
     10     10  H        4   1.004791(     9)      1  123.938(    24)      9  178.948(    38)      0
     11     11  C        5   1.454936(    10)      3  131.500(    25)      1   -5.089(    39)      0
[...]

 ----------------------------------------------------------------------
 1\1\GINC-BHC0029\Freq\RB3LYP\def2TZVP\C8H7N1O1\DHANAWAY\10-Jun-2022\1\
 \#N Geom=AllCheck Guess=TCheck SCRF=Check GenChk RB3LYP/def2TZVP Freq\
 \int_zmat_initalOpt\\0,1\C\C,1,R2\C,1,R3,2,A3\N,1,R4,2,A4,3,D4,0\C,3,R
 5,1,A5,2,D5,0\H,2,R6,1,A6,3,D6,0\H,3,R7,1,A7,5,D7,0\C,2,R8,1,A8,6,D8,0
 \C,4,R9,1,A9,2,D9,0\H,4,R10,1,A10,9,D10,0\C,5,R11,3,A11,1,D11,0\H,5,R1
 2,3,A12,11,D12,0\H,8,R13,2,A13,1,D13,0\H,9,R14,4,A14,1,D14,0\C,11,R15,
 5,A15,3,D15,0\H,11,R16,5,A16,15,D16,0\O,15,R17,11,A17,5,D17,0\\R2=1.38
 804968\R3=1.44646031\R4=1.38045222\R5=1.3467537\R6=1.07570833\R7=1.085
 98976\R8=1.41574965\R9=1.36698018\R10=1.0048632\R11=1.45359318\R12=1.0
 8303402\R13=1.07752569\R14=1.07658119\R15=1.31916752\R16=1.08529588\R1
 7=1.15903165\A3=133.84687791\A4=106.20924481\A5=129.97347267\A6=125.92
 293273\A7=114.62277714\A8=108.05171403\A9=110.6708344\A10=123.96976395
 \A11=131.26724119\A12=116.23646239\A13=126.6017514\A14=121.36217597\A1
 5=129.22708264\A16=118.09527868\A17=176.75832437\D4=175.23825075\D5=-2
 6.11106906\D6=1.2418365\D7=179.02260159\D8=-176.97130812\D9=0.73555682
 \D10=177.24284036\D11=-5.18931807\D12=-179.36837597\D13=179.44807791\D
 14=179.39704302\D15=-18.15507148\D16=-173.34004193\D17=176.97478117\\V
 ersion=ES64L-G16RevA.03\HF=-439.1552895\RMSD=4.751e-09\RMSF=1.832e-04\
 ZeroPoint=0.1300495\Thermal=0.1390038\Dipole=0.2098059,-0.2298584,-1.0
 661026\DipoleDeriv=0.0553437,-0.0239352,0.2266723,-0.0311067,-0.020109
 6,0.0173384,0.2511061,0.0112382,0.0725269,0.0807853,0.031009,-0.085949
 7,-0.0225533,-0.1841597,-0.0134846,-0.0845289,-0.0379423,-0.1125343,0.
 0386782,-0.0046369,-0.2610146,0.0089871,-0.155684,0.0185748,-0.3320556
 ,-0.0655281,0.0905168,0.1219954,0.0947103,-0.1296263,0.0770666,-0.1791
 139,-0.0637936,-0.310272,-0.0390832,-0.530606,0.128728,0.2080967,0.221
 5592,0.3755405,0.1723264,0.2748058,0.465237,0.410827,0.2581786,-0.0133
 588,-0.0039817,-0.0561657,-0.0001682,0.1507416,-0.0167441,-0.0434334,-
 0.0077829,0.063157,0.0077964,-0.0585517,-0.0443963,-0.0641581,0.081774
 9,-0.0808514,0.0208443,-0.0614154,-0.0640927,-0.2195638,-0.0682853,-0.
 0085833,0.024558,-0.2329515,0.0149046,-0.1102453,-0.0264567,-0.0058027
 ,-0.349223,-0.0842981,0.0101782,-0.029556,-0.1792807,0.0105297,0.40718
 2,0.1283752,0.2627177,0.2116883,0.0101226,0.0446785,0.001902,0.2859678
 ,0.0215278,0.0365554,0.0077683,0.1843686,-0.1588798,0.1728741,0.225547
 9,-0.174964,-0.5253558,-0.2266369,-0.3343886,-0.4405478,-0.6695365,0.0
 128722,-0.0123164,0.0610145,-0.0337086,0.0889159,-0.0664437,0.0577586,
 -0.0488532,-0.0092518,0.0419734,-0.0170679,0.0633638,-0.0024773,0.1646
 322,-0.0008248,0.0724739,0.0120368,-0.0537676,-0.0534419,-0.0185331,-0
 .0138098,-0.0324003,0.1761052,-0.0027997,-0.0221086,0.0008842,0.068475
 2,0.1283179,-0.4989644,-0.5543238,0.0867173,0.9396241,0.7769787,0.2663
 293,1.161802,1.4140325,0.0822281,-0.0394546,-0.0318903,-0.0076075,0.15
 92093,-0.0543017,-0.0057489,-0.0743056,0.0928417,-0.1159396,0.3132126,
 0.3327454,-0.1760715,-0.7426423,-0.6087791,-0.3347055,-0.9310165,-1.06
 12236\Polar=141.4816358,21.6719105,75.1009596,-11.3578779,12.425233,10
 6.4803236\PG=C01 [X(C8H7N1O1)]\NImag=0\\0.63737376,0.03554050,0.150632
 70,-0.09131180,0.01317458,0.70700959,-0.10231697,-0.00173747,-0.015916
 04,0.71548293,-0.00292382,-0.06787494,0.00513473,0.03233753,0.11949459
 ,-0.00691932,-0.00168638,-0.32584016,0.14079032,0.00110743,0.67634631,
 -0.16902648,-0.01123634,0.05693171,0.00406610,0.00497793,0.01748903,0.
 72916351,-0.00288035,-0.05583285,-0.01621552,0.00079465,0.00381038,0.0
 0150653,0.18951615,0.23369781,0.09049231,-0.00697163,-0.18333710,0.026
 83121,-0.00212850,-0.02116377,-0.02346580,0.14662954,0.55299100,-0.256
 60870,-0.01597726,-0.04651707,-0.02869060,-0.00419783,-0.05901400,-0.0
 4432428,-0.00362812,-0.00141698,0.63759000,-0.01320135,-0.06021266,-0.
 00765982,-0.00331596,0.01283080,-0.00404285,-0.00438296,-0.00155293,0.
 00265238,0.03649202,0.07885673,-0.04452199,-0.00599568,-0.12581701,-0.
 01914752,-0.00107179,-0.06124436,0.02982396,0.00290672,0.01231955,0.07
 680487,-0.00401264,0.92759187,-0.03791586,-0.00645394,0.02165640,0.004
 17883,-0.00305829,-0.00990442,-0.41909345,-0.13054543,-0.02191483,0.00
 479122,0.00106038,0.00218945,0.72917128,-0.00383776,0.00527970,0.00706
 473,0.00048327,-0.00101258,-0.00209628,-0.12289222,-0.10398336,-0.0256
 1625,0.00131017,0.00213484,-0.00102423,0.17036494,0.24645343,0.0217719
 4,0.00843190,0.01118068,-0.00037091,-0.00100979,0.00073466,0.00263028,
 -0.01965916,-0.10174430,-0.00047520,-0.00082076,-0.00293096,-0.0686935
 7,0.16094191,0.51329856,0.00608805,0.00042739,0.00307755,-0.25276426,-
 0.00647196,-0.14299974,-0.00044281,0.00006942,-0.00043603,0.00082302,-
 0.00011408,0.00216946,0.00023694,0.00002937,-0.00001402,0.26335114,0.0
 0043029,-0.00088562,-0.00040461,-0.00530481,-0.02571192,-0.00230376,-0
 .00047389,-0.00326437,-0.00010678,0.00047519,0.00411852,-0.00035185,0.
 00001926,0.00009278,0.00111930,0.00904558,0.02237211,-0.02431370,-0.00
 082116,-0.00595657,-0.14092962,-0.00214749,-0.16170997,0.00015266,-0.0
 0001516,0.00100721,-0.00027285,0.00002536,-0.00614902,-0.00002586,-0.0
 0019038,-0.00088635,0.15399083,0.00230823,0.16170983,0.00731946,0.0081
 6261,0.02057651,-0.00328228,-0.00002424,0.00105602,-0.07142838,-0.0326
 2853,-0.05444665,0.00175296,-0.00015678,0.00004345,-0.00812544,-0.0149
 2395,-0.02695958,0.00004751,0.00009323,0.00003701,0.07884724,-0.003510
 28,0.00212781,0.00247536,0.00038116,0.00130090,-0.00078567,-0.03031710
 ,-0.08066833,-0.10746657,0.00014272,-0.00048370,0.00101060,-0.00755171
 ,-0.00354906,-0.01095002,0.00004698,-0.00006883,-0.00004603,0.04192743
 ,0.07891784,-0.00537396,-0.00888795,-0.02219478,0.00290038,-0.00129535
 ,0.00130652,-0.05949256,-0.10558389,-0.25740609,-0.00212708,0.00127217
 ,0.00238687,0.00076797,-0.00142037,-0.00124505,-0.00010532,-0.00005646
 ,0.00003519,0.05969191,0.11462704,0.27561036,-0.00634939,-0.00096461,0
 .07581301,-0.26573322,-0.01374654,0.03475488,0.00611591,0.00003296,-0.
 00566954,-0.00079918,-0.00179664,-0.02406251,-0.00360075,0.00075869,0.
 00238486,-0.01171277,-0.00189422,0.00959373,0.00015751,-0.00079590,0.0
 0033558,0.56590816,-0.00202523,0.00994690,0.00449369,-0.01599626,-0.05
 818942,0.00466668,0.00074318,0.00392298,0.00012563,-0.00124818,0.01419
 742,-0.00245249,0.00048805,0.00000293,-0.00054642,0.00023800,-0.000313
 03,0.00025834,-0.00025758,0.00014919,0.00049430,0.03432679,0.11485453,
 0.01864091,0.00134467,-0.02969837,0.06708255,0.00688969,-0.12699813,-0
 .00070204,-0.00054723,-0.00629719,0.01662101,0.00071805,-0.09316596,-0
 .00184389,-0.00055053,0.00028091,-0.01793790,-0.00166716,0.01176788,0.
 00116211,0.00009425,-0.00050020,-0.04582091,-0.00653202,0.84138394,-0.
 07824772,-0.00696934,0.00755869,-0.06234196,-0.00518532,0.00130247,-0.
 00372317,-0.00211846,-0.00488097,-0.18787765,-0.00845934,0.09724625,-0
 .00019389,0.00131825,0.00404310,-0.00469627,-0.00077331,0.00355965,-0.
 00021072,0.00057986,0.00104454,-0.18676421,-0.00927740,-0.13510321,0.8
 4584847,-0.00784122,0.01441014,0.00033209,-0.00578104,0.01158381,-0.00
 005222,-0.00069717,0.00127012,-0.00119259,-0.00740223,-0.05038817,0.00
 568800,0.00048100,0.00065984,0.00065343,-0.00043296,0.00339230,0.00040
 525,0.00028997,-0.00004318,0.00025239,-0.00986971,-0.06037707,-0.00974
 354,0.05307348,0.10960619,0.03785253,0.00316727,-0.01687584,-0.0552456
 3,-0.00558778,0.02164825,-0.00849666,0.00049422,0.00165048,0.09890150,
 0.00718618,-0.23675996,0.00186924,-0.00121814,-0.00317126,0.00212444,0
 .00104119,-0.00136104,0.00033248,0.00015862,-0.00126042,-0.11609602,-0
 .00826399,-0.28238850,0.06516757,0.00615516,0.60653410,0.00236414,0.00
 165828,-0.02962510,-0.00757894,-0.00062828,-0.00200856,0.00222865,-0.0
 0043172,-0.00132379,-0.10998185,-0.00490835,-0.11263825,-0.00051954,-0
 .00035349,0.00015447,0.00053835,-0.00032085,-0.00136373,-0.00051945,0.
 00062010,0.00127854,-0.00339660,-0.00023133,0.00524539,0.01553153,0.00
 087112,0.01840988,0.10006321,0.00007590,-0.00620928,-0.00329356,-0.001
 37600,0.00143869,0.00053123,0.00039355,-0.00180165,0.00090372,-0.00402
 923,-0.00144272,0.00463027,-0.00034083,-0.00046551,-0.00015045,-0.0000
 3536,0.00236200,-0.00022802,0.00019774,0.00035666,-0.00060134,0.000646
 43,0.00194711,0.00046898,0.00145060,-0.00710163,-0.00012716,0.00311584
 ,0.00996603,0.00061501,-0.00016862,-0.00279910,-0.00106131,0.00001861,
 0.00159302,0.00058151,0.00065342,0.00163060,-0.11271401,0.00210885,-0.
 41980794,-0.00008681,-0.00011422,-0.00041493,0.00017996,-0.00005021,0.
 00004385,-0.00018009,-0.00037324,-0.00010871,0.00444799,0.00049018,-0.
 00200692,-0.01281825,-0.00021683,-0.01383680,0.12134829,-0.00212863,0.
 43510743,0.00360897,0.00171468,-0.00280310,-0.00075395,0.00004042,0.00
 173829,-0.01545900,-0.01717158,-0.02289952,-0.00140016,-0.00045869,-0.
 00019212,-0.12140844,-0.05252891,-0.06716156,-0.00050708,0.00100851,-0
 .00001372,-0.00284516,-0.00312199,0.00068938,0.00103351,-0.00074205,-0
 .00002439,0.00027351,0.00007796,-0.00090777,0.00005093,-0.00004131,0.0
 0006000,0.57893930,0.00616781,-0.00314844,-0.00298427,-0.00032803,0.00
 183554,0.00237761,-0.01952935,-0.00517721,-0.01341865,0.00030041,0.000
 11189,-0.00023651,-0.03640019,-0.08880331,-0.07338902,-0.00001148,-0.0
 0038210,-0.00011915,-0.00376034,0.00740756,-0.00126171,-0.00112274,-0.
 00042178,0.00020580,-0.00059147,-0.00053801,0.00133015,0.00052779,0.00
 007110,-0.00002354,0.00740225,0.28130022,0.00455022,0.00255995,-0.0061
 3911,-0.00039840,0.00185486,0.00124614,-0.02364953,-0.01129866,-0.0046
 6892,0.00158246,0.00070561,0.00010806,-0.03498159,-0.06611159,-0.15109
 048,0.00007038,-0.00037989,0.00032029,0.00019458,-0.00138362,0.0029876
 6,-0.00203020,-0.00061011,0.00044204,-0.00175557,-0.00067393,0.0028316
 4,0.00064651,0.00005833,0.00006672,-0.08393275,0.30611000,0.54186233,-
 0.00232262,-0.00346550,-0.00116295,-0.00021161,0.00014832,-0.00015866,
 -0.01713855,0.00351332,0.02567636,-0.00037509,-0.00048666,0.00099279,-
 0.14476088,0.02193414,0.12974966,0.00000736,-0.00009029,0.00005806,-0.
 00024903,0.00182903,-0.00036550,-0.00001718,-0.00002450,0.00016276,-0.
 00033606,0.00006561,-0.00022136,-0.00003002,-0.00004790,0.00003523,0.0
 0686343,-0.00463860,-0.01285388,0.15723240,-0.00335579,0.00715331,-0.0
 0446974,0.00040955,-0.00027921,-0.00002658,-0.01045089,0.00354503,0.00
 833505,-0.00118791,0.00066140,0.00112174,0.02554569,-0.04462716,-0.043
 40092,0.00000635,0.00008464,0.00003879,0.00161459,-0.00542505,0.002615
 32,0.00004974,0.00002896,0.00011110,-0.00013380,-0.00014095,-0.0003834
 2,0.00000601,0.00011300,0.00006547,0.00527183,-0.00352450,-0.01644007,
 -0.01685278,0.04249743,-0.00032218,-0.00359427,0.00366303,-0.00031721,
 0.00008374,-0.00020625,-0.00007876,-0.00059716,0.00306978,0.00068759,-
 0.00014324,-0.00042153,0.13078403,-0.04451092,-0.23288063,-0.00000525,
 -0.00012829,0.00004891,-0.00162872,0.00300658,0.00055980,-0.00019663,0
 .00004127,0.00000020,-0.00000801,0.00006794,0.00034371,-0.00000273,-0.
 00004966,-0.00004852,0.01046343,-0.00674173,-0.01731907,-0.13816943,0.
 05375977,0.24496161,-0.00629119,-0.00076557,0.00146012,0.00103045,-0.0
 0023187,0.02565766,0.00097964,0.00001349,0.00094351,-0.00253152,-0.000
 54987,-0.00457031,0.00008984,0.00017604,0.00026204,0.00078448,0.000205
 58,-0.00100913,-0.00031981,0.00002646,0.00034646,-0.08712620,-0.005470
 43,0.08861077,0.01185369,0.00117545,-0.01635592,0.00096211,-0.00015037
 ,-0.00069845,0.00006318,-0.00017641,-0.00027630,-0.00004841,0.00001747
 ,-0.00003062,0.08053426,-0.00071466,0.00385743,-0.00020832,0.00001532,
 -0.00097942,0.00219976,-0.00002367,0.00118660,0.00044378,-0.00063647,0
 .00455902,-0.00024116,0.00014693,-0.00003536,-0.00013512,0.00009496,-0
 .00226033,-0.00014458,-0.00022458,-0.00013984,0.00016698,-0.00497895,-
 0.02543424,0.00919194,0.00067053,-0.00188541,-0.00156849,-0.00002027,0
 .00239155,-0.00016010,-0.00001678,0.00003530,-0.00003977,0.00002273,-0
 .00009563,0.00003768,0.00540481,0.02157888,0.00029479,-0.00002469,0.00
 029689,-0.00141519,-0.00010923,-0.00084907,-0.00008274,-0.00001768,0.0
 0000460,-0.00293458,-0.00008036,-0.00291645,-0.00002914,-0.00009138,-0
 .00012769,0.00046453,0.00003026,0.00006155,0.00007430,0.00005662,-0.00
 000482,0.08648499,0.00881403,-0.32201788,0.01219198,0.00101842,-0.0124
 1647,0.00078354,0.00001626,-0.00027415,-0.00000232,0.00009503,0.000127
 61,0.00002700,0.00000436,0.00000418,-0.09543372,-0.00961173,0.33793142
 ,0.00116014,0.00003262,0.00281666,-0.00044321,-0.00030364,-0.00250782,
 -0.00053306,-0.00032733,-0.00048491,-0.01309398,-0.00067393,-0.0043582
 8,-0.00001705,0.00012966,0.00019108,-0.00028361,-0.00015009,0.00028975
 ,0.00001502,-0.00001171,0.00001423,-0.00615334,-0.00040818,0.00374057,
 -0.34897596,-0.02371363,-0.02876958,-0.00005696,0.00013630,0.00034538,
 -0.00002173,-0.00004050,-0.00000583,-0.00006806,-0.00003832,0.00000533
 ,0.00006170,0.00021429,-0.00043222,0.36839233,-0.00001987,0.00187745,0
 .00064860,-0.00008973,0.00461907,-0.00060953,-0.00017724,0.00229517,-0
 .00038303,-0.00039413,-0.00346058,0.00004412,-0.00006403,-0.00004455,0
 .00015769,-0.00022700,0.00120506,0.00010983,-0.00005422,-0.00002840,-0
 .00005992,-0.00080614,-0.00005374,0.00005989,-0.02390606,-0.02063285,-
 0.00213043,0.00014666,-0.00171566,-0.00010446,0.00016345,0.00008595,-0
 .00012067,0.00017420,-0.00037228,0.00014103,0.00022526,-0.00284515,-0.
 00006490,0.02513812,0.01898522,0.00046268,-0.00009902,-0.00589537,-0.0
 0329592,-0.00016904,-0.00439191,0.00144894,0.00025601,0.00086478,0.031
 78811,0.00229580,0.00703484,-0.00001780,-0.00022776,-0.00050419,-0.001
 14152,-0.00013987,0.00083916,-0.00004217,0.00000960,0.00003866,-0.0206
 5907,-0.00144234,0.00938689,-0.03810661,-0.00304772,-0.06407474,-0.000
 71021,-0.00003608,0.00080016,-0.00005687,0.00006279,0.00020109,0.00007
 776,0.00010766,-0.00003231,0.00098041,0.00006350,0.00022394,0.02916963
 ,0.00238197,0.05557050,0.00089057,0.00044599,-0.00341038,0.00026382,0.
 00198562,-0.00012168,-0.00165031,-0.00576866,-0.00941911,0.00330130,0.
 00193090,0.00068406,0.01435604,0.00337096,0.00537149,-0.00027442,-0.00
 319541,0.00066706,-0.00119250,-0.00003175,0.00067643,-0.00405988,0.000
 37681,0.00031203,-0.00113737,-0.00070746,0.00400186,0.00072228,-0.0000
 6654,-0.00013756,-0.14819746,0.05742532,0.09818773,-0.00070456,-0.0021
 8650,-0.00247816,-0.00022738,0.00000112,0.00007707,0.00004810,-0.00033
 299,0.00023885,0.30553674,-0.00215242,-0.00228160,0.00299393,-0.001183
 24,-0.00264485,-0.00132954,0.00557100,0.00374131,0.00351135,-0.0013905
 6,-0.00039062,-0.00029977,0.00205657,-0.02206254,-0.02417042,-0.001870
 30,0.00046798,0.00113552,0.00054662,0.00125077,-0.00043243,0.00223138,
 -0.00030024,0.00039456,0.00195033,0.00032278,-0.00246314,-0.00046072,0
 .00005859,-0.00010233,0.06331061,-0.15646402,-0.17976293,-0.00199232,0
 .00126817,-0.00109315,0.00032766,0.00021340,-0.00017798,0.00006803,0.0
 0030712,-0.00009241,-0.22272018,0.48069728,-0.00220742,0.00052765,0.00
 301427,-0.00015645,-0.00369471,0.00187449,0.00806843,0.00570661,0.0117
 0880,-0.00502625,-0.00163822,-0.00112888,0.00404743,-0.02600461,-0.049
 31688,-0.00012151,0.00311008,-0.00003426,0.00127021,0.00032365,-0.0004
 6700,0.00492770,0.00030539,-0.00016329,0.00333370,0.00095311,-0.005557
 78,-0.00103278,0.00013116,0.00000499,0.10297462,-0.17582173,-0.2996726
 3,-0.00385890,-0.00223786,-0.00295018,0.00060004,0.00007832,-0.0002674
 0,-0.00000631,0.00017941,-0.00031536,-0.35086100,0.58904553,0.98171817
 ,0.00023008,0.00006788,-0.00029766,0.00004648,0.00004202,-0.00003194,0
 .00092207,-0.00031938,-0.00182738,-0.00005892,0.00002819,0.00011729,-0
 .01200697,-0.00219099,0.00141070,-0.00001635,-0.00012863,0.00003427,-0
 .00039779,-0.00038059,0.00005358,-0.00003453,0.00006785,0.00007769,0.0
 0005789,0.00002797,-0.00003028,0.00002908,-0.00002662,-0.00001126,-0.3
 2262159,-0.02664985,0.02573778,0.00130203,0.00030598,0.00047167,-0.000
 00732,-0.00000525,0.00000037,-0.00000003,-0.00001413,0.00001175,-0.017
 07503,0.00385083,0.00903381,0.34748999,-0.00051005,0.00036584,0.000392
 28,-0.00016919,-0.00005142,0.00037243,0.00060925,0.00083785,-0.0023088
 2,0.00011954,-0.00004395,0.00003922,-0.01747384,0.00096046,-0.00146577
 ,-0.00008746,0.00031276,-0.00010850,-0.00054123,-0.00036289,-0.0001895
 0,0.00006518,-0.00025653,-0.00017702,-0.00017071,0.00000910,0.00001073
 ,0.00000109,0.00000810,-0.00000710,-0.02579072,-0.02667511,-0.00773278
 ,0.00041647,-0.00047254,0.00025634,0.00000989,-0.00001705,0.00000717,-
 0.00000018,0.00003872,-0.00001872,0.01959701,-0.00113745,-0.00449144,0
 .02784831,0.02513264,0.00067356,-0.00014985,-0.00092879,0.00026070,0.0
 0020214,-0.00026097,-0.00108297,-0.00237793,-0.00282060,-0.00000954,0.
 00011640,0.00011698,-0.02334224,-0.00385087,0.00496328,0.00008729,-0.0
 0039116,0.00015410,-0.00051560,-0.00066954,-0.00001234,-0.00026004,0.0
 0022636,0.00018618,0.00005505,0.00000266,0.00018629,0.00008741,-0.0000
 3602,0.00000137,0.03187648,-0.00998544,-0.04153339,-0.00023256,0.00083
 029,0.00112366,-0.00001631,0.00000445,0.00000281,-0.00000403,-0.000045
 24,0.00003609,0.02686934,0.00136510,-0.00456928,-0.03144388,0.01760003
 ,0.04322179,0.00004375,-0.00047992,0.00115344,-0.00095161,-0.00276006,
 0.00087747,-0.00065638,0.00187957,0.00424213,-0.00251656,-0.00100689,-
 0.00058062,-0.00518187,-0.00314815,-0.00429478,-0.00117928,0.00105385,
 -0.00045441,0.00043086,0.00016728,-0.00033457,0.00253216,-0.00055953,-
 0.00022344,0.00093988,0.00038286,-0.00253626,-0.00040693,0.00009779,0.
 00009437,0.02238173,0.02142539,0.02891439,0.00085684,0.00097878,0.0008
 2565,0.00019246,0.00004995,-0.00006868,-0.00003030,0.00023784,-0.00014
 794,-0.15059994,0.15185671,0.22901468,0.00214090,-0.00392334,-0.003002
 66,0.13200427,0.00075830,0.00079409,-0.00147417,0.00086025,-0.00017000
 ,0.00017113,-0.00163022,-0.00202655,-0.00300864,0.00125187,0.00050473,
 0.00024544,0.00172543,0.00899946,0.00439363,-0.00070745,-0.00152196,-0
 .00046085,-0.00026074,-0.00074144,0.00036073,-0.00213571,0.00029603,-0
 .00026144,-0.00145784,-0.00014700,0.00219904,0.00040812,0.00002361,0.0
 0011275,0.02088234,-0.00571311,-0.02673474,-0.00050528,-0.00041461,-0.
 00053593,-0.00023758,-0.00012975,0.00013581,-0.00005151,-0.00026057,0.
 00009564,0.14987577,-0.30304609,-0.38647232,-0.00252361,0.00135149,-0.
 00284137,-0.16625214,0.30220168,-0.00038359,-0.00080677,0.00031775,0.0
 0038903,0.00192249,-0.00208479,-0.00007546,-0.00184064,-0.00780883,0.0
 0412203,0.00131709,0.00078390,-0.00047437,0.00502090,0.01385463,0.0005
 9686,-0.00162903,0.00010923,-0.00066575,-0.00008763,0.00027435,-0.0039
 4782,-0.00006851,-0.00021160,-0.00283038,-0.00060165,0.00450835,0.0007
 5111,-0.00008903,0.00004892,0.03019195,-0.02619963,-0.02976997,0.00024
 363,-0.00003096,0.00008362,-0.00047026,-0.00007714,0.00022092,-0.00000
 364,-0.00020438,0.00021776,0.22934198,-0.38852190,-0.63387780,-0.00330
 652,-0.00217854,0.00013281,-0.25347879,0.41407531,0.65320074\\-0.00073
 683,0.00055839,-0.00001016,0.00076878,-0.00033502,-0.00000314,0.000028
 45,-0.00035114,0.00005929,-0.00002352,0.00002484,-0.00001037,-0.000016
 98,0.00009222,-0.00002620,-0.00000335,0.00005452,0.00001012,-0.0000079
 2,0.00002199,-0.00001017,-0.00000682,0.00001223,0.00000149,0.00000378,
 0.00003319,-0.00000164,0.00001094,-0.00000524,-0.00000667,-0.00005668,
 -0.00002708,-0.00000028,-0.00000578,-0.00001260,-0.00000206,0.00000583
 ,0.00000035,0.00000542,0.00000557,-0.00004682,-0.00000285,0.00005134,-
 0.00001538,-0.00001129,0.00001023,-0.00001008,-0.00000007,-0.00002706,
 0.00000564,0.00000857\\\@


 THE POLHOLDE ROLLS WITHOUT SLIPPING ON THE HERPOLHOLDE LYING IN
 THE INVARIABLE PLANE.
 H.GOLDSTEIN, "CLASSICAL MECHANICS", PG 161
 Job cpu time:       0 days  2 hours  1 minutes 22.0 seconds.
 Elapsed time:       0 days  0 hours 10 minutes  7.3 seconds.
 File lengths (MBytes):  RWF=    182 Int=      0 D2E=      0 Chk=     32 Scr=      1
 Normal termination of Gaussian 16 at Fri Jun 10 11:43:24 2022.
