 Entering Gaussian System, Link 0=g16
 Input=int_zmat_field_N50.gjf
 Output=int_zmat_field_N50.out
 Initial command:
 /software/gaussian/g16-a03/l1.exe "/local_scratch/9897988/Gau-20026.inp" -scrdir="/local_scratch/9897988/"
 Entering Link 1 = /software/gaussian/g16-a03/l1.exe PID=     20027.
  
 Copyright (c) 1988,1990,1992,1993,1995,1998,2003,2009,2016,
            Gaussian, Inc.  All Rights Reserved.
  
 This is part of the Gaussian(R) 16 program.  It is based on
 the Gaussian(R) 09 system (copyright 2009, Gaussian, Inc.),
 the Gaussian(R) 03 system (copyright 2003, Gaussian, Inc.),
 the Gaussian(R) 98 system (copyright 1998, Gaussian, Inc.),
 the Gaussian(R) 94 system (copyright 1995, Gaussian, Inc.),
 the Gaussian 92(TM) system (copyright 1992, Gaussian, Inc.),
 the Gaussian 90(TM) system (copyright 1990, Gaussian, Inc.),
 the Gaussian 88(TM) system (copyright 1988, Gaussian, Inc.),
 the Gaussian 86(TM) system (copyright 1986, Carnegie Mellon
 University), and the Gaussian 82(TM) system (copyright 1983,
 Carnegie Mellon University). Gaussian is a federally registered
 trademark of Gaussian, Inc.
  
 This software contains proprietary and confidential information,
 including trade secrets, belonging to Gaussian, Inc.
  
 This software is provided under written license and may be
 used, copied, transmitted, or stored only in accord with that
 written license.
  
 The following legend is applicable only to US Government
 contracts under FAR:
  
                    RESTRICTED RIGHTS LEGEND
  
 Use, reproduction and disclosure by the US Government is
 subject to restrictions as set forth in subparagraphs (a)
 and (c) of the Commercial Computer Software - Restricted
 Rights clause in FAR 52.227-19.
  
 Gaussian, Inc.
 340 Quinnipiac St., Bldg. 40, Wallingford CT 06492
  
  
 ---------------------------------------------------------------
 Warning -- This program may not be used in any manner that
 competes with the business of Gaussian, Inc. or will provide
 assistance to any competitor of Gaussian, Inc.  The licensee
 of this program is prohibited from giving any competitor of
 Gaussian, Inc. access to this program.  By using this program,
 the user acknowledges that Gaussian, Inc. is engaged in the
 business of creating and licensing software in the field of
 computational chemistry and represents and warrants to the
 licensee that it is not a competitor of Gaussian, Inc. and that
 it will not use this program in any manner prohibited above.
 ---------------------------------------------------------------
  

 Cite this work as:
 Gaussian 16, Revision A.03,
 M. J. Frisch, G. W. Trucks, H. B. Schlegel, G. E. Scuseria, 
 M. A. Robb, J. R. Cheeseman, G. Scalmani, V. Barone, 
 G. A. Petersson, H. Nakatsuji, X. Li, M. Caricato, A. V. Marenich, 
 J. Bloino, B. G. Janesko, R. Gomperts, B. Mennucci, H. P. Hratchian, 
 J. V. Ortiz, A. F. Izmaylov, J. L. Sonnenberg, D. Williams-Young, 
 F. Ding, F. Lipparini, F. Egidi, J. Goings, B. Peng, A. Petrone, 
 T. Henderson, D. Ranasinghe, V. G. Zakrzewski, J. Gao, N. Rega, 
 G. Zheng, W. Liang, M. Hada, M. Ehara, K. Toyota, R. Fukuda, 
 J. Hasegawa, M. Ishida, T. Nakajima, Y. Honda, O. Kitao, H. Nakai, 
 T. Vreven, K. Throssell, J. A. Montgomery, Jr., J. E. Peralta, 
 F. Ogliaro, M. J. Bearpark, J. J. Heyd, E. N. Brothers, K. N. Kudin, 
 V. N. Staroverov, T. A. Keith, R. Kobayashi, J. Normand, 
 K. Raghavachari, A. P. Rendell, J. C. Burant, S. S. Iyengar, 
 J. Tomasi, M. Cossi, J. M. Millam, M. Klene, C. Adamo, R. Cammi, 
 J. W. Ochterski, R. L. Martin, K. Morokuma, O. Farkas, 
 J. B. Foresman, and D. J. Fox, Gaussian, Inc., Wallingford CT, 2016.
 
 ******************************************
 Gaussian 16:  ES64L-G16RevA.03 25-Dec-2016
                18-Mar-2022 
 ******************************************
 %nprocshared=12
 Will use up to   12 processors via shared memory.
 %chk=checkpoint.chk
 %mem=12GB
 ----------------------------------------------------------------------
 # Opt=(Z-matrix, MaxStep=10) B3LYP/Def2TZVP geom=allcheckpoint guess=r
 ead Field=read NoSymm
 ----------------------------------------------------------------------
 1/8=10,10=7,18=40,26=3,29=7,38=1/1,3;
 2/12=2,15=1,29=3,40=1/2;
 3/5=44,7=101,11=2,14=-6,25=1,30=1,71=1,74=-5,116=-2/1,2,3;
 4/5=1/1;
 5/5=2,38=6/2;
 6/7=2,8=2,9=2,10=2,28=1/1;
 7/29=1,30=1/1,2,3,16;
 1/8=10,10=7,18=40,26=3/3(2);
 2/15=1,29=3/2;
 99//99;
 2/15=1,29=3/2;
 3/5=44,7=101,11=2,14=-2,25=1,30=1,71=1,74=-5/1,2,3;
 4/5=5,16=3,69=1/1;
 5/5=2,38=5/2;
 7/30=1/1,2,3,16;
 1/8=10,18=40,26=3/3(-5);
 2/15=1,29=3/2;
 6/7=2,8=2,9=2,10=2,19=2,28=1/1;
 99/9=1/99;
 Structure from the checkpoint file:  "checkpoint.chk"
 ------------------
 int_zmat_initalOpt
 ------------------
 Charge =  0 Multiplicity = 1
 Z-Matrix found in chk file.
 C
 C,1,R2
 C,1,R3,2,A3
 H,1,R4,2,A4,3,D4,0
 H,2,R5,1,A5,3,D5,0
 H,3,R6,1,A6,2,D6,0
 C,3,R7,1,A7,6,D7,0
 C,2,R8,1,A8,5,D8,0
 H,7,R9,3,A9,1,D9,0
 O,7,R10,3,A10,9,D10,0
 H,8,R11,2,A11,1,D11,0
 H,8,R12,2,A12,11,D12,0
      Variables:
 R2=1.33610007
 R3=1.45429163
 R4=1.08301503
 R5=1.08197278
 R6=1.08001911
 R7=1.34163307
 R8=1.50130237
 R9=1.08269176
 R10=1.3509213
 R11=1.08835966
 R12=1.10112192
 A3=119.27897222
 A4=121.21168542
 A5=122.6946445
 A6=121.66181788
 A7=118.06273837
 A8=118.31267261
 A9=124.35126132
 A10=123.34076116
 A11=112.42540429
 A12=111.12940414
 D4=-175.75912213
 D5=175.43294795
 D6=172.76226405
 D7=172.48852647
 D8=178.91242168
 D9=-169.2434195
 D10=174.7213045
 D11=151.37737795
 D12=121.358301
 Recover connectivity data from disk.

 GradGradGradGradGradGradGradGradGradGradGradGradGradGradGradGradGradGrad
 Berny optimization.
 Initialization pass.
                       ----------------------------
                       !    Initial Parameters    !
                       ! (Angstroms and Degrees)  !
 ----------------------                            ----------------------
 !      Name          Value   Derivative information (Atomic Units)     !
 ------------------------------------------------------------------------
 !       R2          1.3361   estimate D2E/DX2                          !
 !       R3          1.4543   estimate D2E/DX2                          !
 !       R4          1.083    estimate D2E/DX2                          !
 !       R5          1.082    estimate D2E/DX2                          !
 !       R6          1.08     estimate D2E/DX2                          !
 !       R7          1.3416   estimate D2E/DX2                          !
 !       R8          1.5013   estimate D2E/DX2                          !
 !       R9          1.0827   estimate D2E/DX2                          !
 !       R10         1.3509   estimate D2E/DX2                          !
 !       R11         1.0884   estimate D2E/DX2                          !
 !       R12         1.1011   estimate D2E/DX2                          !
 !       A3        119.279    estimate D2E/DX2                          !
 !       A4        121.2117   estimate D2E/DX2                          !
 !       A5        122.6946   estimate D2E/DX2                          !
 !       A6        121.6618   estimate D2E/DX2                          !
 !       A7        118.0627   estimate D2E/DX2                          !
 !       A8        118.3127   estimate D2E/DX2                          !
 !       A9        124.3513   estimate D2E/DX2                          !
 !       A10       123.3408   estimate D2E/DX2                          !
 !       A11       112.4254   estimate D2E/DX2                          !
 !       A12       111.1294   estimate D2E/DX2                          !
 !       D4       -175.7591   estimate D2E/DX2                          !
 !       D5        175.4329   estimate D2E/DX2                          !
 !       D6        172.7623   estimate D2E/DX2                          !
 !       D7        172.4885   estimate D2E/DX2                          !
 !       D8        178.9124   estimate D2E/DX2                          !
 !       D9       -169.2434   estimate D2E/DX2                          !
 !       D10       174.7213   estimate D2E/DX2                          !
 !       D11       151.3774   estimate D2E/DX2                          !
 !       D12       121.3583   estimate D2E/DX2                          !
 ------------------------------------------------------------------------
 Trust Radius=1.00D-01 FncErr=1.00D-07 GrdErr=1.00D-06 EigMax=2.50D+02 EigMin=1.00D-04
 Number of steps in this run=     40 maximum allowed number of steps=    100.
 GradGradGradGradGradGradGradGradGradGradGradGradGradGradGradGradGradGrad

 ---------------------------------------------------------------------------------------------------
                            Z-MATRIX (ANGSTROMS AND DEGREES)
   CD    Cent   Atom    N1       Length/X        N2       Alpha/Y        N3        Beta/Z          J
 ---------------------------------------------------------------------------------------------------
      1      1  C 
      2      2  C        1   1.336100(     1)
      3      3  C        1   1.454292(     2)      2  119.279(    12)
      4      4  H        1   1.083015(     3)      2  121.212(    13)      3 -175.759(    22)      0
      5      5  H        2   1.081973(     4)      1  122.695(    14)      3  175.433(    23)      0
      6      6  H        3   1.080019(     5)      1  121.662(    15)      2  172.762(    24)      0
      7      7  C        3   1.341633(     6)      1  118.063(    16)      6  172.489(    25)      0
      8      8  C        2   1.501302(     7)      1  118.313(    17)      5  178.912(    26)      0
      9      9  H        7   1.082692(     8)      3  124.351(    18)      1 -169.243(    27)      0
     10     10  O        7   1.350921(     9)      3  123.341(    19)      9  174.721(    28)      0
     11     11  H        8   1.088360(    10)      2  112.425(    20)      1  151.377(    29)      0
     12     12  H        8   1.101122(    11)      2  111.129(    21)     11  121.358(    30)      0
 ---------------------------------------------------------------------------------------------------
                         Z-Matrix orientation:                         
 ---------------------------------------------------------------------
 Center     Atomic      Atomic             Coordinates (Angstroms)
 Number     Number       Type             X           Y           Z
 ---------------------------------------------------------------------
      1          6           0        0.000000    0.000000    0.000000
      2          6           0        0.000000    0.000000    1.336100
      3          6           0        1.268504    0.000000   -0.711239
      4          1           0       -0.923722    0.068497   -0.561220
      5          1           0       -0.907655    0.072503    1.920540
      6          1           0        1.316990   -0.115816   -1.783935
      7          6           0        2.378952    0.301408   -0.021284
      8          6           0        1.315274   -0.130230    2.048142
      9          1           0        3.344368    0.494812   -0.471603
     10          8           0        2.392163    0.498578    1.315106
     11          1           0        1.309696    0.354618    3.022523
     12          1           0        1.585068   -1.187881    2.193241
 ---------------------------------------------------------------------
                    Distance matrix (angstroms):
                    1          2          3          4          5
     1  C    0.000000
     2  C    1.336100   0.000000
     3  C    1.454292   2.408465   0.000000
     4  H    1.083015   2.111345   2.198420   0.000000
     5  H    2.125458   1.081973   3.415727   2.481815   0.000000
     6  H    2.220428   3.388583   1.080019   2.559256   4.325234
     7  C    2.398064   2.755494   1.341633   3.354613   3.824247
     8  C    2.437579   1.501302   2.762849   3.444033   2.235799
     9  H    3.413509   3.833722   2.147435   4.290264   4.896978
    10  O    2.774983   2.443658   2.370077   3.834144   3.381847
    11  H    3.313111   2.164505   3.750791   4.232403   2.492108
    12  H    2.955302   2.158285   3.153931   3.931866   2.806529
                    6          7          8          9         10
     6  H    0.000000
     7  C    2.099709   0.000000
     8  C    3.832105   2.366484   0.000000
     9  H    2.491053   1.082692   3.294999   0.000000
    10  O    3.337295   1.350921   1.446524   2.024608   0.000000
    11  H    4.829431   3.226593   1.088360   4.045796   2.026754
    12  H    4.127847   2.784305   1.101122   3.609430   2.065592
                   11         12
    11  H    0.000000
    12  H    1.772806   0.000000
 Symmetry turned off by external request.
 Stoichiometry    C5H6O
 Framework group  C1[X(C5H6O)]
 Deg. of freedom    30
 Full point group                 C1      NOp   1
 Rotational constants (GHZ):           5.5808833           5.3754014           2.8559103
 Standard basis: def2TZVP (5D, 7F)
 The following finite field(s) will be applied:
 An electric field of              0.0021 -0.0014 -0.0043
   222 basis functions,   354 primitive gaussians,   252 cartesian basis functions
    22 alpha electrons       22 beta electrons
       nuclear repulsion energy       223.6012127808 Hartrees.
 NAtoms=   12 NActive=   12 NUniq=   12 SFac= 1.00D+00 NAtFMM=   60 NAOKFM=F Big=F
 Integral buffers will be    131072 words long.
 Raffenetti 2 integral format.
 Two-electron integral symmetry is turned off.
 One-electron integrals computed using PRISM.
   1 Symmetry operations used in ECPInt.
 ECPInt:  NShTT=    4095 NPrTT=   12396 LenC2=    4075 LenP2D=   10420.
 LDataN:  DoStor=T MaxTD1= 6 Len=  172
 NBasis=   222 RedAO= T EigKep=  9.58D-05  NBF=   222
 NBsUse=   222 1.00D-06 EigRej= -1.00D+00 NBFU=   222
 The nuclear repulsion energy is now       223.5508698356 hartrees.
 Initial guess from the checkpoint file:  "checkpoint.chk"
 B after Tr=     0.000000   -0.000000    0.000000
         Rot=    1.000000    0.000000   -0.000000   -0.000000 Ang=   0.00 deg.
 Keep R1 ints in memory in canonical form, NReq=319363885.
 Requested convergence on RMS density matrix=1.00D-08 within 128 cycles.
 Requested convergence on MAX density matrix=1.00D-06.
 Requested convergence on             energy=1.00D-06.
 No special actions if energy rises.
 SCF Done:  E(RB3LYP) =  -269.423600404     A.U. after   10 cycles
            NFock= 10  Conv=0.80D-08     -V/T= 2.0050

 **********************************************************************

            Population analysis using the SCF density.

 **********************************************************************

 Alpha  occ. eigenvalues --  -19.16007 -10.23408 -10.22699 -10.17670 -10.17070
 Alpha  occ. eigenvalues --  -10.17012  -1.06964  -0.81322  -0.77381  -0.66448
 Alpha  occ. eigenvalues --   -0.62615  -0.53397  -0.50856  -0.48582  -0.46140
 Alpha  occ. eigenvalues --   -0.43793  -0.40716  -0.37870  -0.35905  -0.32987
 Alpha  occ. eigenvalues --   -0.30064  -0.21059
 Alpha virt. eigenvalues --   -0.03319   0.04363   0.05505   0.07316   0.07998
 Alpha virt. eigenvalues --    0.09385   0.09907   0.11283   0.13363   0.16576
 Alpha virt. eigenvalues --    0.17525   0.19579   0.21017   0.22310   0.23208
 Alpha virt. eigenvalues --    0.24218   0.25352   0.27144   0.28425   0.30589
 Alpha virt. eigenvalues --    0.30971   0.33484   0.34710   0.36409   0.36905
 Alpha virt. eigenvalues --    0.38163   0.38759   0.40721   0.42346   0.43070
 Alpha virt. eigenvalues --    0.43507   0.45375   0.46188   0.49680   0.51327
 Alpha virt. eigenvalues --    0.53220   0.55439   0.58164   0.60075   0.63084
 Alpha virt. eigenvalues --    0.65540   0.66293   0.68767   0.72816   0.73813
 Alpha virt. eigenvalues --    0.78243   0.81258   0.84596   0.86259   0.89494
 Alpha virt. eigenvalues --    0.91125   0.92866   0.95611   0.97824   0.99416
 Alpha virt. eigenvalues --    1.05548   1.07420   1.09076   1.11107   1.11907
 Alpha virt. eigenvalues --    1.15420   1.18366   1.19701   1.23841   1.26329
 Alpha virt. eigenvalues --    1.29783   1.33633   1.36359   1.40300   1.43209
 Alpha virt. eigenvalues --    1.44549   1.45232   1.48756   1.51371   1.52411
 Alpha virt. eigenvalues --    1.56297   1.60334   1.62873   1.65405   1.67641
 Alpha virt. eigenvalues --    1.70416   1.72140   1.74612   1.77723   1.80297
 Alpha virt. eigenvalues --    1.85277   1.87633   1.90587   1.91778   1.96885
 Alpha virt. eigenvalues --    2.00298   2.01061   2.06427   2.10740   2.12772
 Alpha virt. eigenvalues --    2.14489   2.17769   2.20681   2.22832   2.27305
 Alpha virt. eigenvalues --    2.27763   2.37230   2.38985   2.45530   2.45998
 Alpha virt. eigenvalues --    2.50963   2.52380   2.53143   2.57534   2.60194
 Alpha virt. eigenvalues --    2.62053   2.62618   2.65641   2.67924   2.70812
 Alpha virt. eigenvalues --    2.71263   2.73936   2.76563   2.79115   2.80540
 Alpha virt. eigenvalues --    2.83337   2.83980   2.87416   2.88912   2.91546
 Alpha virt. eigenvalues --    2.93998   2.97848   3.02386   3.02607   3.07421
 Alpha virt. eigenvalues --    3.08201   3.11133   3.13669   3.15922   3.16072
 Alpha virt. eigenvalues --    3.19113   3.19933   3.22584   3.24404   3.25478
 Alpha virt. eigenvalues --    3.28972   3.30276   3.33140   3.36535   3.37754
 Alpha virt. eigenvalues --    3.39910   3.42303   3.45019   3.45529   3.48987
 Alpha virt. eigenvalues --    3.54839   3.58668   3.63180   3.68326   3.69576
 Alpha virt. eigenvalues --    3.78613   3.84383   3.86187   3.91234   3.93998
 Alpha virt. eigenvalues --    3.97760   4.03113   4.04360   4.12557   4.17619
 Alpha virt. eigenvalues --    4.19991   4.25045   4.28750   4.36841   4.39934
 Alpha virt. eigenvalues --    4.45218   4.52369   4.57932   4.63869   4.66682
 Alpha virt. eigenvalues --    4.68073   4.79318   4.84492   4.91337   4.94955
 Alpha virt. eigenvalues --    5.12322   5.18228   5.37009   5.45571   5.75525
 Alpha virt. eigenvalues --    5.85711   5.90915   6.23641   6.32816   6.65863
 Alpha virt. eigenvalues --    6.76723   6.86901   7.15262   7.25314  22.06841
 Alpha virt. eigenvalues --   22.32003  22.43007  22.74536  22.92470  44.05422
          Condensed to atoms (all electrons):
               1          2          3          4          5          6
     1  C    4.868473   0.658762   0.348978   0.414907  -0.037122  -0.049965
     2  C    0.658762   5.011992  -0.065926  -0.029083   0.403444   0.005549
     3  C    0.348978  -0.065926   5.148245  -0.055972   0.004558   0.403046
     4  H    0.414907  -0.029083  -0.055972   0.563515  -0.007904  -0.005151
     5  H   -0.037122   0.403444   0.004558  -0.007904   0.525231  -0.000231
     6  H   -0.049965   0.005549   0.403046  -0.005151  -0.000231   0.596337
     7  C   -0.047201  -0.029269   0.568290   0.003940   0.002209  -0.034578
     8  C   -0.043968   0.355356  -0.035022   0.007226  -0.031844  -0.000506
     9  H    0.007392  -0.001270  -0.087316  -0.000373   0.000165  -0.005026
    10  O   -0.018049  -0.024547  -0.070431  -0.001057   0.003476   0.005851
    11  H    0.002867  -0.034616   0.005301  -0.000285  -0.005199   0.000145
    12  H   -0.007322  -0.077508  -0.006425  -0.000250   0.006199  -0.000361
               7          8          9         10         11         12
     1  C   -0.047201  -0.043968   0.007392  -0.018049   0.002867  -0.007322
     2  C   -0.029269   0.355356  -0.001270  -0.024547  -0.034616  -0.077508
     3  C    0.568290  -0.035022  -0.087316  -0.070431   0.005301  -0.006425
     4  H    0.003940   0.007226  -0.000373  -0.001057  -0.000285  -0.000250
     5  H    0.002209  -0.031844   0.000165   0.003476  -0.005199   0.006199
     6  H   -0.034578  -0.000506  -0.005026   0.005851   0.000145  -0.000361
     7  C    4.748614  -0.047190   0.437426   0.341365  -0.002323   0.033959
     8  C   -0.047190   4.681071   0.005381   0.270722   0.418789   0.390629
     9  H    0.437426   0.005381   0.585350  -0.041793  -0.000625   0.002186
    10  O    0.341365   0.270722  -0.041793   7.895132  -0.028990  -0.066469
    11  H   -0.002323   0.418789  -0.000625  -0.028990   0.562273  -0.050149
    12  H    0.033959   0.390629   0.002186  -0.066469  -0.050149   0.700168
 Mulliken charges:
               1
     1  C   -0.097752
     2  C   -0.172883
     3  C   -0.157325
     4  H    0.110488
     5  H    0.137018
     6  H    0.084890
     7  C    0.024759
     8  C    0.029356
     9  H    0.098503
    10  O   -0.265209
    11  H    0.132812
    12  H    0.075343
 Sum of Mulliken charges =  -0.00000
 Mulliken charges with hydrogens summed into heavy atoms:
               1
     1  C    0.012736
     2  C   -0.035865
     3  C   -0.072434
     7  C    0.123262
     8  C    0.237510
    10  O   -0.265209
 Electronic spatial extent (au):  <R**2>=            783.1343
 Charge=             -0.0000 electrons
 Dipole moment (field-independent basis, Debye):
    X=             -0.9544    Y=             -0.2653    Z=              0.7828  Tot=              1.2625
 Quadrupole moment (field-independent basis, Debye-Ang):
   XX=            -36.8192   YY=            -38.7142   ZZ=            -30.8892
   XY=             -0.7271   XZ=             -1.6471   YZ=             -0.8739
 Traceless Quadrupole moment (field-independent basis, Debye-Ang):
   XX=             -1.3450   YY=             -3.2400   ZZ=              4.5850
   XY=             -0.7271   XZ=             -1.6471   YZ=             -0.8739
 Octapole moment (field-independent basis, Debye-Ang**2):
  XXX=           -131.9434  YYY=            -10.4547  ZZZ=            -57.4168  XYY=            -45.2108
  XXY=             -3.4687  XXZ=            -31.5926  XZZ=            -42.6282  YZZ=             -4.0187
  YYZ=            -23.2946  XYZ=             -3.1454
 Hexadecapole moment (field-independent basis, Debye-Ang**3):
 XXXX=           -580.3839 YYYY=            -63.4918 ZZZZ=           -338.7556 XXXY=            -24.5129
 XXXZ=           -113.9145 YYYX=            -28.3330 YYYZ=             -4.1051 ZZZX=            -74.4290
 ZZZY=              1.3504 XXYY=           -113.9217 XXZZ=           -166.9922 YYZZ=            -75.9741
 XXYZ=             -9.7138 YYXZ=            -25.6702 ZZXY=            -12.5679
 N-N= 2.235508698356D+02 E-N=-1.074928412754D+03  KE= 2.680824262300D+02
   1 Symmetry operations used in ECPInt.
 ECPInt:  NShTT=    4095 NPrTT=   12396 LenC2=    4075 LenP2D=   10420.
 LDataN:  DoStor=T MaxTD1= 7 Len=  274
 Calling FoFJK, ICntrl=      2127 FMM=F ISym2X=0 I1Cent= 0 IOpClX= 0 NMat=1 NMatS=1 NMatT=0.
 -------------------------------------------------------------------
 Center     Atomic                   Forces (Hartrees/Bohr)
 Number     Number              X              Y              Z
 -------------------------------------------------------------------
      1        6          -0.000826210   -0.000049433    0.000215927
      2        6           0.000309885   -0.000036506   -0.000400963
      3        6           0.000266383   -0.000211041    0.000123653
      4        1          -0.000075716    0.000080021    0.000114210
      5        1           0.000138609   -0.000016472    0.000024543
      6        1           0.000013954    0.000067588   -0.000277410
      7        6           0.000072610    0.000134997    0.001279357
      8        6          -0.000495418    0.000061127    0.001031201
      9        1           0.000213439    0.000077092   -0.000049366
     10        8           0.000611514   -0.000056092   -0.001936375
     11        1          -0.000076867   -0.000146628   -0.000160708
     12        1          -0.000152184    0.000095349    0.000035931
 -------------------------------------------------------------------
 Cartesian Forces:  Max     0.001936375 RMS     0.000485563
 -----------------------------------------------------------------------------------------------
                       Internal Coordinate Forces (Hartree/Bohr or radian)
  Cent   Atom   N1       Length/X         N2         Alpha/Y        N3         Beta/Z          J
 -----------------------------------------------------------------------------------------------
      1  C 
      2  C        1   0.000530(     1)
      3  C        1   0.001448(     2)      2   0.004630(    12)
      4  H        1   0.000010(     3)      2  -0.000286(    13)      3   0.000130(    22)     0
      5  H        2  -0.000104(     4)      1   0.000196(    14)      3  -0.000328(    23)     0
      6  H        3   0.000269(     5)      1   0.000016(    15)      2  -0.000653(    24)     0
      7  C        3   0.000415(     6)      1   0.004236(    16)      6  -0.000821(    25)     0
      8  C        2  -0.000206(     7)      1   0.003435(    17)      5  -0.000337(    26)     0
      9  H        7   0.000225(     8)      3   0.000104(    18)      1  -0.000189(    27)     0
     10  O        7  -0.001918(     9)      3   0.001686(    19)      9  -0.000240(    28)     0
     11  H        8  -0.000209(    10)      2  -0.000114(    20)      1  -0.000048(    29)     0
     12  H        8  -0.000124(    11)      2  -0.000178(    21)     11  -0.000202(    30)     0
 -----------------------------------------------------------------------------------------------
 Internal  Forces:  Max     0.004629519 RMS     0.001439176

 GradGradGradGradGradGradGradGradGradGradGradGradGradGradGradGradGradGrad
 Berny optimization.
 Search for a local minimum.
 Step number   1 out of a maximum of   40
 All quantities printed in internal units (Hartrees-Bohrs-Radians)
 Second derivative matrix not updated -- first step.
 ITU=  0
     Eigenvalues ---    0.03428   0.04476   0.05049   0.06637   0.08244
     Eigenvalues ---    0.12829   0.16575   0.18152   0.19865   0.21477
     Eigenvalues ---    0.27262   0.30784   0.32752   0.33558   0.34582
     Eigenvalues ---    0.35003   0.35633   0.35671   0.35757   0.35992
     Eigenvalues ---    0.39014   0.42835   0.52134   0.54244   0.55742
     Eigenvalues ---    0.57023   0.58881   1.96728   4.34210  22.79898
 RFO step:  Lambda=-1.42878338D-05 EMin= 3.42842411D-02
 Linear search not attempted -- first point.
 Variable       Old X    -DE/DX   Delta X   Delta X   Delta X     New X
                                 (Linear)    (Quad)   (Total)
    R2        2.52486   0.00053   0.00000  -0.00032  -0.00032   2.52454
    R3        2.74821   0.00145   0.00000   0.00125   0.00125   2.74946
    R4        2.04660   0.00001   0.00000   0.00003   0.00003   2.04663
    R5        2.04463  -0.00010   0.00000  -0.00029  -0.00029   2.04434
    R6        2.04094   0.00027   0.00000   0.00075   0.00075   2.04169
    R7        2.53532   0.00041   0.00000   0.00026   0.00026   2.53558
    R8        2.83705  -0.00021   0.00000   0.00022   0.00022   2.83727
    R9        2.04599   0.00022   0.00000   0.00063   0.00063   2.04662
   R10        2.55287  -0.00192   0.00000  -0.00227  -0.00227   2.55060
   R11        2.05670  -0.00021   0.00000  -0.00060  -0.00060   2.05610
   R12        2.08082  -0.00012   0.00000  -0.00036  -0.00036   2.08046
    A3        2.08181   0.00463   0.00000   0.00011   0.00011   2.08192
    A4        2.11554  -0.00029   0.00000  -0.00103  -0.00103   2.11451
    A5        2.14143   0.00020   0.00000  -0.00003  -0.00003   2.14139
    A6        2.12340   0.00002   0.00000  -0.00025  -0.00025   2.12315
    A7        2.06058   0.00424   0.00000   0.00075   0.00075   2.06133
    A8        2.06495   0.00344   0.00000   0.00133   0.00133   2.06627
    A9        2.17034   0.00010   0.00000   0.00020   0.00020   2.17054
   A10        2.15270   0.00169   0.00000   0.00018   0.00018   2.15288
   A11        1.96219  -0.00011   0.00000   0.00018   0.00018   1.96237
   A12        1.93957  -0.00018   0.00000  -0.00160  -0.00160   1.93797
    D4       -3.06758   0.00013   0.00000   0.00242   0.00242  -3.06515
    D5        3.06188  -0.00033   0.00000  -0.00140  -0.00140   3.06048
    D6        3.01527  -0.00065   0.00000   0.00411   0.00411   3.01938
    D7        3.01049  -0.00082   0.00000   0.00041   0.00041   3.01091
    D8        3.12261  -0.00034   0.00000   0.00159   0.00159   3.12420
    D9       -2.95385  -0.00019   0.00000  -0.00174  -0.00174  -2.95559
   D10        3.04946  -0.00024   0.00000  -0.00213  -0.00213   3.04733
   D11        2.64203  -0.00005   0.00000  -0.00385  -0.00385   2.63818
   D12        2.11810  -0.00020   0.00000  -0.00174  -0.00174   2.11636
         Item               Value     Threshold  Converged?
 Maximum Force            0.004630     0.000450     NO 
 RMS     Force            0.001439     0.000300     NO 
 Maximum Displacement     0.004108     0.001800     NO 
 RMS     Displacement     0.001499     0.001200     NO 
 Predicted change in Energy=-7.143917D-06
 GradGradGradGradGradGradGradGradGradGradGradGradGradGradGradGradGradGrad

 ---------------------------------------------------------------------------------------------------
                            Z-MATRIX (ANGSTROMS AND DEGREES)
   CD    Cent   Atom    N1       Length/X        N2       Alpha/Y        N3        Beta/Z          J
 ---------------------------------------------------------------------------------------------------
      1      1  C 
      2      2  C        1   1.335931(     1)
      3      3  C        1   1.454953(     2)      2  119.285(    12)
      4      4  H        1   1.083032(     3)      2  121.153(    13)      3 -175.620(    22)      0
      5      5  H        2   1.081819(     4)      1  122.693(    14)      3  175.353(    23)      0
      6      6  H        3   1.080415(     5)      1  121.647(    15)      2  172.998(    24)      0
      7      7  C        3   1.341770(     6)      1  118.106(    16)      6  172.512(    25)      0
      8      8  C        2   1.501417(     7)      1  118.389(    17)      5  179.004(    26)      0
      9      9  H        7   1.083025(     8)      3  124.363(    18)      1 -169.343(    27)      0
     10     10  O        7   1.349719(     9)      3  123.351(    19)      9  174.599(    28)      0
     11     11  H        8   1.088043(    10)      2  112.435(    20)      1  151.157(    29)      0
     12     12  H        8   1.100930(    11)      2  111.037(    21)     11  121.259(    30)      0
 ---------------------------------------------------------------------------------------------------
                         Z-Matrix orientation:                         
 ---------------------------------------------------------------------
 Center     Atomic      Atomic             Coordinates (Angstroms)
 Number     Number       Type             X           Y           Z
 ---------------------------------------------------------------------
      1          6           0        0.000000    0.000000    0.000000
      2          6           0        0.000000    0.000000    1.335931
      3          6           0        1.269002    0.000000   -0.711703
      4          1           0       -0.924145    0.070780   -0.560272
      5          1           0       -0.907443    0.073764    1.920259
      6          1           0        1.316888   -0.112127   -1.785217
      7          6           0        2.380848    0.296140   -0.021452
      8          6           0        1.314460   -0.129892    2.049779
      9          1           0        3.347076    0.487567   -0.471678
     10          8           0        2.395103    0.492247    1.313868
     11          1           0        1.308902    0.358183    3.022194
     12          1           0        1.579989   -1.187766    2.199586
 ---------------------------------------------------------------------
                    Distance matrix (angstroms):
                    1          2          3          4          5
     1  C    0.000000
     2  C    1.335931   0.000000
     3  C    1.454953   2.408978   0.000000
     4  H    1.083032   2.110602   2.199508   0.000000
     5  H    2.125156   1.081819   3.416076   2.480589   0.000000
     6  H    2.221208   3.389444   1.080415   2.560502   4.325824
     7  C    2.399291   2.756561   1.341770   3.356202   3.825252
     8  C    2.438498   1.501417   2.764909   3.444413   2.234972
     9  H    3.415131   3.835113   2.147958   4.292422   4.898319
    10  O    2.775802   2.445263   2.369251   3.835028   3.383733
    11  H    3.312881   2.164486   3.751250   4.231213   2.491453
    12  H    2.957251   2.157094   3.159605   3.933375   2.802998
                    6          7          8          9         10
     6  H    0.000000
     7  C    2.099895   0.000000
     8  C    3.835038   2.368267   0.000000
     9  H    2.491321   1.083025   3.297049   0.000000
    10  O    3.336487   1.349719   1.447899   2.023475   0.000000
    11  H    4.830368   3.227491   1.088043   4.046979   2.028838
    12  H    4.135804   2.788613   1.100930   3.614552   2.066725
                   11         12
    11  H    0.000000
    12  H    1.772042   0.000000
 Symmetry turned off by external request.
 Stoichiometry    C5H6O
 Framework group  C1[X(C5H6O)]
 Deg. of freedom    30
 Full point group                 C1      NOp   1
 Rotational constants (GHZ):           5.5778360           5.3738760           2.8531599
 Standard basis: def2TZVP (5D, 7F)
 The following finite field(s) will be applied:
 An electric field of              0.0021 -0.0014 -0.0043
   222 basis functions,   354 primitive gaussians,   252 cartesian basis functions
    22 alpha electrons       22 beta electrons
       nuclear repulsion energy       223.5558385132 Hartrees.
 NAtoms=   12 NActive=   12 NUniq=   12 SFac= 1.00D+00 NAtFMM=   60 NAOKFM=F Big=F
 Integral buffers will be    131072 words long.
 Raffenetti 2 integral format.
 Two-electron integral symmetry is turned off.
 One-electron integrals computed using PRISM.
   1 Symmetry operations used in ECPInt.
 ECPInt:  NShTT=    4095 NPrTT=   12396 LenC2=    4075 LenP2D=   10420.
 LDataN:  DoStor=T MaxTD1= 6 Len=  172
 NBasis=   222 RedAO= T EigKep=  9.58D-05  NBF=   222
 NBsUse=   222 1.00D-06 EigRej= -1.00D+00 NBFU=   222
 The nuclear repulsion energy is now       223.5058167899 hartrees.
 Initial guess from the checkpoint file:  "checkpoint.chk"
 B after Tr=     0.000834    0.002211   -0.000039
         Rot=    0.999999    0.000127    0.000023    0.001243 Ang=   0.14 deg.
 Keep R1 ints in memory in canonical form, NReq=319363885.
 Requested convergence on RMS density matrix=1.00D-08 within 128 cycles.
 Requested convergence on MAX density matrix=1.00D-06.
 Requested convergence on             energy=1.00D-06.
 No special actions if energy rises.
 SCF Done:  E(RB3LYP) =  -269.423609650     A.U. after    8 cycles
            NFock=  8  Conv=0.55D-08     -V/T= 2.0050
   1 Symmetry operations used in ECPInt.
 ECPInt:  NShTT=    4095 NPrTT=   12396 LenC2=    4075 LenP2D=   10420.
 LDataN:  DoStor=T MaxTD1= 7 Len=  274
 Calling FoFJK, ICntrl=      2127 FMM=F ISym2X=0 I1Cent= 0 IOpClX= 0 NMat=1 NMatS=1 NMatT=0.
 -------------------------------------------------------------------
 Center     Atomic                   Forces (Hartrees/Bohr)
 Number     Number              X              Y              Z
 -------------------------------------------------------------------
      1        6          -0.000448575    0.000226429    0.000023121
      2        6           0.000516885    0.000179801   -0.000248333
      3        6           0.000104599   -0.000380175   -0.000120972
      4        1          -0.000004205   -0.000010173    0.000028064
      5        1           0.000010724   -0.000051692    0.000059913
      6        1          -0.000012333   -0.000007168    0.000003417
      7        6          -0.000208372    0.000243859    0.000563427
      8        6          -0.000348994   -0.000144575    0.000271508
      9        1          -0.000003064    0.000016422   -0.000048905
     10        8           0.000291947   -0.000231421   -0.000497328
     11        1           0.000049229    0.000103286   -0.000087176
     12        1           0.000052159    0.000055408    0.000053264
 -------------------------------------------------------------------
 Cartesian Forces:  Max     0.000563427 RMS     0.000226487
 -----------------------------------------------------------------------------------------------
                       Internal Coordinate Forces (Hartree/Bohr or radian)
  Cent   Atom   N1       Length/X         N2         Alpha/Y        N3         Beta/Z          J
 -----------------------------------------------------------------------------------------------
      1  C 
      2  C        1   0.000049(     1)
      3  C        1   0.000200(     2)      2   0.000944(    12)
      4  H        1  -0.000012(     3)      2  -0.000053(    13)      3  -0.000018(    22)     0
      5  H        2   0.000020(     4)      1   0.000120(    14)      3   0.000147(    23)     0
      6  H        3  -0.000003(     5)      1  -0.000026(    15)      2   0.000342(    24)     0
      7  C        3   0.000082(     6)      1   0.000852(    16)      6   0.000354(    25)     0
      8  C        2  -0.000105(     7)      1   0.000889(    17)      5   0.000060(    26)     0
      9  H        7   0.000020(     8)      3  -0.000088(    18)      1   0.000471(    27)     0
     10  O        7  -0.000523(     9)      3   0.000679(    19)      9   0.000438(    28)     0
     11  H        8  -0.000032(    10)      2   0.000011(    20)      1  -0.000310(    29)     0
     12  H        8  -0.000033(    11)      2   0.000174(    21)     11  -0.000043(    30)     0
 -----------------------------------------------------------------------------------------------
 Internal  Forces:  Max     0.000943892 RMS     0.000366895

 GradGradGradGradGradGradGradGradGradGradGradGradGradGradGradGradGradGrad
 Berny optimization.
 Search for a local minimum.
 Step number   2 out of a maximum of   40
 All quantities printed in internal units (Hartrees-Bohrs-Radians)
 Update second derivatives using D2CorN and points    1    2
 DE= -9.25D-06 DEPred=-7.14D-06 R= 1.29D+00
 TightC=F SS=  1.41D+00  RLast= 8.21D-03 DXNew= 1.6818D-01 2.4635D-02
 Trust test= 1.29D+00 RLast= 8.21D-03 DXMaxT set to 1.00D-01
 ITU=  1  0
     Eigenvalues ---    0.02903   0.03862   0.04748   0.06591   0.07194
     Eigenvalues ---    0.12744   0.16339   0.18043   0.19915   0.21666
     Eigenvalues ---    0.27324   0.30812   0.32744   0.33537   0.34602
     Eigenvalues ---    0.34957   0.35629   0.35637   0.35763   0.35973
     Eigenvalues ---    0.39074   0.42127   0.52058   0.53311   0.55761
     Eigenvalues ---    0.56897   0.58885   1.96647   4.33114  22.79397
 RFO step:  Lambda=-6.00251177D-06 EMin= 2.90348002D-02
 Quartic linear search produced a step of  0.40599.
 Variable       Old X    -DE/DX   Delta X   Delta X   Delta X     New X
                                 (Linear)    (Quad)   (Total)
    R2        2.52454   0.00005  -0.00013  -0.00007  -0.00020   2.52434
    R3        2.74946   0.00020   0.00051  -0.00054  -0.00004   2.74942
    R4        2.04663  -0.00001   0.00001  -0.00006  -0.00005   2.04658
    R5        2.04434   0.00002  -0.00012   0.00018   0.00006   2.04440
    R6        2.04169  -0.00000   0.00030  -0.00024   0.00007   2.04176
    R7        2.53558   0.00008   0.00011  -0.00017  -0.00007   2.53551
    R8        2.83727  -0.00011   0.00009   0.00009   0.00018   2.83745
    R9        2.04662   0.00002   0.00026  -0.00009   0.00017   2.04679
   R10        2.55060  -0.00052  -0.00092  -0.00050  -0.00143   2.54917
   R11        2.05610  -0.00003  -0.00024   0.00002  -0.00022   2.05588
   R12        2.08046  -0.00003  -0.00015  -0.00005  -0.00020   2.08026
    A3        2.08192   0.00094   0.00004   0.00002   0.00007   2.08199
    A4        2.11451  -0.00005  -0.00042  -0.00009  -0.00051   2.11400
    A5        2.14139   0.00012  -0.00001  -0.00031  -0.00033   2.14107
    A6        2.12315  -0.00003  -0.00010   0.00005  -0.00006   2.12309
    A7        2.06133   0.00085   0.00030  -0.00051  -0.00021   2.06112
    A8        2.06627   0.00089   0.00054   0.00143   0.00197   2.06824
    A9        2.17054  -0.00009   0.00008  -0.00138  -0.00130   2.16924
   A10        2.15288   0.00068   0.00007   0.00168   0.00176   2.15463
   A11        1.96237   0.00001   0.00007  -0.00006   0.00001   1.96238
   A12        1.93797   0.00017  -0.00065   0.00154   0.00089   1.93886
    D4       -3.06515  -0.00002   0.00098   0.00108   0.00206  -3.06309
    D5        3.06048   0.00015  -0.00057  -0.00121  -0.00178   3.05871
    D6        3.01938   0.00034   0.00167   0.00277   0.00444   3.02382
    D7        3.01091   0.00035   0.00017  -0.00048  -0.00031   3.01060
    D8        3.12420   0.00006   0.00065   0.00079   0.00144   3.12564
    D9       -2.95559   0.00047  -0.00070  -0.00003  -0.00073  -2.95632
   D10        3.04733   0.00044  -0.00086   0.00063  -0.00023   3.04710
   D11        2.63818  -0.00031  -0.00156  -0.00681  -0.00837   2.62981
   D12        2.11636  -0.00004  -0.00071   0.00173   0.00103   2.11739
         Item               Value     Threshold  Converged?
 Maximum Force            0.000944     0.000450     NO 
 RMS     Force            0.000367     0.000300     NO 
 Maximum Displacement     0.008374     0.001800     NO 
 RMS     Displacement     0.001942     0.001200     NO 
 Predicted change in Energy=-3.273934D-06
 GradGradGradGradGradGradGradGradGradGradGradGradGradGradGradGradGradGrad

 ---------------------------------------------------------------------------------------------------
                            Z-MATRIX (ANGSTROMS AND DEGREES)
   CD    Cent   Atom    N1       Length/X        N2       Alpha/Y        N3        Beta/Z          J
 ---------------------------------------------------------------------------------------------------
      1      1  C 
      2      2  C        1   1.335825(     1)
      3      3  C        1   1.454933(     2)      2  119.289(    12)
      4      4  H        1   1.083005(     3)      2  121.123(    13)      3 -175.502(    22)      0
      5      5  H        2   1.081852(     4)      1  122.674(    14)      3  175.251(    23)      0
      6      6  H        3   1.080452(     5)      1  121.644(    15)      2  173.252(    24)      0
      7      7  C        3   1.341736(     6)      1  118.094(    16)      6  172.495(    25)      0
      8      8  C        2   1.501513(     7)      1  118.501(    17)      5  179.086(    26)      0
      9      9  H        7   1.083113(     8)      3  124.288(    18)      1 -169.385(    27)      0
     10     10  O        7   1.348964(     9)      3  123.451(    19)      9  174.586(    28)      0
     11     11  H        8   1.087925(    10)      2  112.436(    20)      1  150.677(    29)      0
     12     12  H        8   1.100824(    11)      2  111.088(    21)     11  121.318(    30)      0
 ---------------------------------------------------------------------------------------------------
                         Z-Matrix orientation:                         
 ---------------------------------------------------------------------
 Center     Atomic      Atomic             Coordinates (Angstroms)
 Number     Number       Type             X           Y           Z
 ---------------------------------------------------------------------
      1          6           0        0.000000    0.000000    0.000000
      2          6           0        0.000000    0.000000    1.335825
      3          6           0        1.268935    0.000000   -0.711781
      4          1           0       -0.924261    0.072705   -0.559782
      5          1           0       -0.907529    0.075395    1.919872
      6          1           0        1.316449   -0.108080   -1.785763
      7          6           0        2.381242    0.291427   -0.020334
      8          6           0        1.313098   -0.130208    2.052317
      9          1           0        3.347575    0.481753   -0.471013
     10          8           0        2.397843    0.484007    1.314710
     11          1           0        1.308486    0.365130    3.020924
     12          1           0        1.575163   -1.187706    2.209908
 ---------------------------------------------------------------------
                    Distance matrix (angstroms):
                    1          2          3          4          5
     1  C    0.000000
     2  C    1.335825   0.000000
     3  C    1.454933   2.408918   0.000000
     4  H    1.083005   2.110183   2.199659   0.000000
     5  H    2.124900   1.081852   3.415886   2.479712   0.000000
     6  H    2.221186   3.389547   1.080452   2.560565   4.325676
     7  C    2.399095   2.755796   1.341736   3.356366   3.824537
     8  C    2.439915   1.501513   2.767516   3.445288   2.234054
     9  H    3.414703   3.834450   2.147277   4.292293   4.897689
    10  O    2.777117   2.446295   2.369675   3.836569   3.385066
    11  H    3.312316   2.164490   3.750730   4.229909   2.491382
    12  H    2.962343   2.157732   3.168705   3.937885   2.800590
                    6          7          8          9         10
     6  H    0.000000
     7  C    2.100030   0.000000
     8  C    3.838145   2.369513   0.000000
     9  H    2.490369   1.083113   3.298604   0.000000
    10  O    3.336601   1.348964   1.448447   2.022573   0.000000
    11  H    4.829931   3.225754   1.087925   4.045381   2.027807
    12  H    4.147037   2.794920   1.100824   3.621584   2.067077
                   11         12
    11  H    0.000000
    12  H    1.772051   0.000000
 Symmetry turned off by external request.
 Stoichiometry    C5H6O
 Framework group  C1[X(C5H6O)]
 Deg. of freedom    30
 Full point group                 C1      NOp   1
 Rotational constants (GHZ):           5.5761468           5.3731895           2.8507867
 Standard basis: def2TZVP (5D, 7F)
 The following finite field(s) will be applied:
 An electric field of              0.0021 -0.0014 -0.0043
   222 basis functions,   354 primitive gaussians,   252 cartesian basis functions
    22 alpha electrons       22 beta electrons
       nuclear repulsion energy       223.5314936138 Hartrees.
 NAtoms=   12 NActive=   12 NUniq=   12 SFac= 1.00D+00 NAtFMM=   60 NAOKFM=F Big=F
 Integral buffers will be    131072 words long.
 Raffenetti 2 integral format.
 Two-electron integral symmetry is turned off.
 One-electron integrals computed using PRISM.
   1 Symmetry operations used in ECPInt.
 ECPInt:  NShTT=    4095 NPrTT=   12396 LenC2=    4075 LenP2D=   10419.
 LDataN:  DoStor=T MaxTD1= 6 Len=  172
 NBasis=   222 RedAO= T EigKep=  9.57D-05  NBF=   222
 NBsUse=   222 1.00D-06 EigRej= -1.00D+00 NBFU=   222
 The nuclear repulsion energy is now       223.4814506904 hartrees.
 Initial guess from the checkpoint file:  "checkpoint.chk"
 B after Tr=     0.000253    0.002368    0.001016
         Rot=    0.999999    0.000031    0.000123    0.001320 Ang=   0.15 deg.
 Keep R1 ints in memory in canonical form, NReq=319363885.
 Requested convergence on RMS density matrix=1.00D-08 within 128 cycles.
 Requested convergence on MAX density matrix=1.00D-06.
 Requested convergence on             energy=1.00D-06.
 No special actions if energy rises.
 SCF Done:  E(RB3LYP) =  -269.423614171     A.U. after    8 cycles
            NFock=  8  Conv=0.79D-08     -V/T= 2.0050
   1 Symmetry operations used in ECPInt.
 ECPInt:  NShTT=    4095 NPrTT=   12396 LenC2=    4075 LenP2D=   10419.
 LDataN:  DoStor=T MaxTD1= 7 Len=  274
 Calling FoFJK, ICntrl=      2127 FMM=F ISym2X=0 I1Cent= 0 IOpClX= 0 NMat=1 NMatS=1 NMatT=0.
 -------------------------------------------------------------------
 Center     Atomic                   Forces (Hartrees/Bohr)
 Number     Number              X              Y              Z
 -------------------------------------------------------------------
      1        6          -0.000382642    0.000370934    0.000049565
      2        6           0.000469470    0.000215116   -0.000006389
      3        6           0.000022703   -0.000436190   -0.000066649
      4        1          -0.000011652   -0.000059616    0.000006046
      5        1          -0.000009043   -0.000097909    0.000034759
      6        1           0.000025302   -0.000040855    0.000053932
      7        6           0.000024663    0.000239141   -0.000004024
      8        6          -0.000171045    0.000003515    0.000039150
      9        1          -0.000008034   -0.000011505   -0.000014600
     10        8           0.000104986   -0.000232297   -0.000207579
     11        1          -0.000100560    0.000006873    0.000076709
     12        1           0.000035852    0.000042793    0.000039081
 -------------------------------------------------------------------
 Cartesian Forces:  Max     0.000469470 RMS     0.000165496
 -----------------------------------------------------------------------------------------------
                       Internal Coordinate Forces (Hartree/Bohr or radian)
  Cent   Atom   N1       Length/X         N2         Alpha/Y        N3         Beta/Z          J
 -----------------------------------------------------------------------------------------------
      1  C 
      2  C        1   0.000183(     1)
      3  C        1   0.000265(     2)      2   0.001228(    12)
      4  H        1   0.000003(     3)      2  -0.000018(    13)      3  -0.000106(    22)     0
      5  H        2   0.000020(     4)      1   0.000059(    14)      3   0.000430(    23)     0
      6  H        3  -0.000048(     5)      1   0.000051(    15)      2   0.000315(    24)     0
      7  C        3  -0.000017(     6)      1   0.000895(    16)      6   0.000397(    25)     0
      8  C        2  -0.000137(     7)      1   0.000905(    17)      5   0.000261(    26)     0
      9  H        7  -0.000003(     8)      3  -0.000037(    18)      1   0.000444(    27)     0
     10  O        7  -0.000237(     9)      3   0.000185(    19)      9   0.000459(    28)     0
     11  H        8   0.000072(    10)      2  -0.000177(    20)      1   0.000078(    29)     0
     12  H        8  -0.000027(    11)      2   0.000125(    21)     11  -0.000034(    30)     0
 -----------------------------------------------------------------------------------------------
 Internal  Forces:  Max     0.001227829 RMS     0.000380390

 GradGradGradGradGradGradGradGradGradGradGradGradGradGradGradGradGradGrad
 Berny optimization.
 Search for a local minimum.
 Step number   3 out of a maximum of   40
 All quantities printed in internal units (Hartrees-Bohrs-Radians)
 Update second derivatives using D2CorN and points    1    2    3
 DE= -4.52D-06 DEPred=-3.27D-06 R= 1.38D+00
 TightC=F SS=  1.41D+00  RLast= 1.06D-02 DXNew= 1.6818D-01 3.1912D-02
 Trust test= 1.38D+00 RLast= 1.06D-02 DXMaxT set to 1.00D-01
 ITU=  1  1  0
     Eigenvalues ---    0.03465   0.03640   0.04712   0.06237   0.07152
     Eigenvalues ---    0.12753   0.16216   0.18101   0.19923   0.21650
     Eigenvalues ---    0.27332   0.30805   0.32737   0.33527   0.34609
     Eigenvalues ---    0.34974   0.35619   0.35635   0.35765   0.35982
     Eigenvalues ---    0.39051   0.41404   0.52039   0.53287   0.55768
     Eigenvalues ---    0.56872   0.58882   1.96583   4.32410  22.79184
 RFO step:  Lambda=-2.12150991D-06 EMin= 3.46524634D-02
 Quartic linear search produced a step of  0.38247.
 Variable       Old X    -DE/DX   Delta X   Delta X   Delta X     New X
                                 (Linear)    (Quad)   (Total)
    R2        2.52434   0.00018  -0.00008   0.00002  -0.00006   2.52428
    R3        2.74942   0.00026  -0.00001   0.00018   0.00017   2.74959
    R4        2.04658   0.00000  -0.00002   0.00002   0.00001   2.04659
    R5        2.04440   0.00002   0.00002   0.00004   0.00007   2.04447
    R6        2.04176  -0.00005   0.00003  -0.00015  -0.00012   2.04163
    R7        2.53551  -0.00002  -0.00002  -0.00008  -0.00010   2.53541
    R8        2.83745  -0.00014   0.00007  -0.00034  -0.00027   2.83718
    R9        2.04679  -0.00000   0.00006  -0.00001   0.00006   2.04684
   R10        2.54917  -0.00024  -0.00055   0.00013  -0.00042   2.54876
   R11        2.05588   0.00007  -0.00009   0.00029   0.00021   2.05609
   R12        2.08026  -0.00003  -0.00008  -0.00009  -0.00017   2.08009
    A3        2.08199   0.00123   0.00003   0.00042   0.00045   2.08244
    A4        2.11400  -0.00002  -0.00020  -0.00024  -0.00044   2.11356
    A5        2.14107   0.00006  -0.00013   0.00000  -0.00012   2.14094
    A6        2.12309   0.00005  -0.00002   0.00020   0.00018   2.12327
    A7        2.06112   0.00090  -0.00008   0.00006  -0.00002   2.06110
    A8        2.06824   0.00091   0.00075   0.00017   0.00092   2.06916
    A9        2.16924  -0.00004  -0.00050   0.00016  -0.00034   2.16890
   A10        2.15463   0.00018   0.00067  -0.00042   0.00025   2.15489
   A11        1.96238  -0.00018   0.00001  -0.00079  -0.00078   1.96160
   A12        1.93886   0.00012   0.00034   0.00000   0.00034   1.93920
    D4       -3.06309  -0.00011   0.00079  -0.00173  -0.00095  -3.06404
    D5        3.05871   0.00043  -0.00068   0.00177   0.00109   3.05980
    D6        3.02382   0.00031   0.00170  -0.00080   0.00090   3.02472
    D7        3.01060   0.00040  -0.00012   0.00002  -0.00010   3.01050
    D8        3.12564   0.00026   0.00055  -0.00013   0.00041   3.12606
    D9       -2.95632   0.00044  -0.00028  -0.00031  -0.00059  -2.95691
   D10        3.04710   0.00046  -0.00009   0.00116   0.00107   3.04817
   D11        2.62981   0.00008  -0.00320  -0.00153  -0.00473   2.62507
   D12        2.11739  -0.00003   0.00039  -0.00090  -0.00051   2.11688
         Item               Value     Threshold  Converged?
 Maximum Force            0.001228     0.000450     NO 
 RMS     Force            0.000380     0.000300     NO 
 Maximum Displacement     0.004734     0.001800     NO 
 RMS     Displacement     0.000997     0.001200     YES
 Predicted change in Energy=-1.168403D-06
 GradGradGradGradGradGradGradGradGradGradGradGradGradGradGradGradGradGrad

 ---------------------------------------------------------------------------------------------------
                            Z-MATRIX (ANGSTROMS AND DEGREES)
   CD    Cent   Atom    N1       Length/X        N2       Alpha/Y        N3        Beta/Z          J
 ---------------------------------------------------------------------------------------------------
      1      1  C 
      2      2  C        1   1.335793(     1)
      3      3  C        1   1.455020(     2)      2  119.315(    12)
      4      4  H        1   1.083008(     3)      2  121.098(    13)      3 -175.556(    22)      0
      5      5  H        2   1.081887(     4)      1  122.667(    14)      3  175.314(    23)      0
      6      6  H        3   1.080385(     5)      1  121.654(    15)      2  173.303(    24)      0
      7      7  C        3   1.341680(     6)      1  118.092(    16)      6  172.489(    25)      0
      8      8  C        2   1.501368(     7)      1  118.554(    17)      5  179.110(    26)      0
      9      9  H        7   1.083143(     8)      3  124.269(    18)      1 -169.419(    27)      0
     10     10  O        7   1.348743(     9)      3  123.466(    19)      9  174.647(    28)      0
     11     11  H        8   1.088034(    10)      2  112.392(    20)      1  150.406(    29)      0
     12     12  H        8   1.100737(    11)      2  111.108(    21)     11  121.288(    30)      0
 ---------------------------------------------------------------------------------------------------
                         Z-Matrix orientation:                         
 ---------------------------------------------------------------------
 Center     Atomic      Atomic             Coordinates (Angstroms)
 Number     Number       Type             X           Y           Z
 ---------------------------------------------------------------------
      1          6           0        0.000000    0.000000    0.000000
      2          6           0        0.000000    0.000000    1.335793
      3          6           0        1.268693    0.000000   -0.712392
      4          1           0       -0.924575    0.071849   -0.559380
      5          1           0       -0.907711    0.074410    1.919747
      6          1           0        1.315866   -0.107242   -1.786406
      7          6           0        2.381360    0.290500   -0.021243
      8          6           0        1.312510   -0.128151    2.053429
      9          1           0        3.347571    0.480207   -0.472516
     10          8           0        2.399028    0.481638    1.313771
     11          1           0        1.306976    0.371572    3.019899
     12          1           0        1.573746   -1.184971    2.216244
 ---------------------------------------------------------------------
                    Distance matrix (angstroms):
                    1          2          3          4          5
     1  C    0.000000
     2  C    1.335793   0.000000
     3  C    1.455020   2.409282   0.000000
     4  H    1.083008   2.109900   2.199772   0.000000
     5  H    2.124830   1.081887   3.416200   2.479185   0.000000
     6  H    2.221318   3.389857   1.080385   2.560712   4.325837
     7  C    2.399108   2.756232   1.341680   3.356576   3.825196
     8  C    2.440425   1.501368   2.769135   3.445478   2.233446
     9  H    3.414689   3.834946   2.147062   4.292497   4.898470
    10  O    2.777284   2.446997   2.369593   3.837050   3.386379
    11  H    3.311501   2.163900   3.750937   4.228580   2.490678
    12  H    2.965227   2.157783   3.173976   3.940215   2.798496
                    6          7          8          9         10
     6  H    0.000000
     7  C    2.099828   0.000000
     8  C    3.839894   2.371071   0.000000
     9  H    2.489825   1.083143   3.300299   0.000000
    10  O    3.336333   1.348743   1.448951   2.022512   0.000000
    11  H    4.830105   3.226363   1.088034   4.046331   2.028686
    12  H    4.153217   2.799215   1.100737   3.626114   2.067156
                   11         12
    11  H    0.000000
    12  H    1.771963   0.000000
 Symmetry turned off by external request.
 Stoichiometry    C5H6O
 Framework group  C1[X(C5H6O)]
 Deg. of freedom    30
 Full point group                 C1      NOp   1
 Rotational constants (GHZ):           5.5730627           5.3739359           2.8491032
 Standard basis: def2TZVP (5D, 7F)
 The following finite field(s) will be applied:
 An electric field of              0.0021 -0.0014 -0.0043
   222 basis functions,   354 primitive gaussians,   252 cartesian basis functions
    22 alpha electrons       22 beta electrons
       nuclear repulsion energy       223.5070218345 Hartrees.
 NAtoms=   12 NActive=   12 NUniq=   12 SFac= 1.00D+00 NAtFMM=   60 NAOKFM=F Big=F
 Integral buffers will be    131072 words long.
 Raffenetti 2 integral format.
 Two-electron integral symmetry is turned off.
 One-electron integrals computed using PRISM.
   1 Symmetry operations used in ECPInt.
 ECPInt:  NShTT=    4095 NPrTT=   12396 LenC2=    4075 LenP2D=   10419.
 LDataN:  DoStor=T MaxTD1= 6 Len=  172
 NBasis=   222 RedAO= T EigKep=  9.56D-05  NBF=   222
 NBsUse=   222 1.00D-06 EigRej= -1.00D+00 NBFU=   222
 The nuclear repulsion energy is now       223.4570535176 hartrees.
 Initial guess from the checkpoint file:  "checkpoint.chk"
 B after Tr=    -0.000194    0.000157    0.000089
         Rot=    1.000000    0.000361   -0.000050    0.000287 Ang=   0.05 deg.
 Keep R1 ints in memory in canonical form, NReq=319363885.
 Requested convergence on RMS density matrix=1.00D-08 within 128 cycles.
 Requested convergence on MAX density matrix=1.00D-06.
 Requested convergence on             energy=1.00D-06.
 No special actions if energy rises.
 SCF Done:  E(RB3LYP) =  -269.423615920     A.U. after    8 cycles
            NFock=  8  Conv=0.50D-08     -V/T= 2.0050
   1 Symmetry operations used in ECPInt.
 ECPInt:  NShTT=    4095 NPrTT=   12396 LenC2=    4075 LenP2D=   10419.
 LDataN:  DoStor=T MaxTD1= 7 Len=  274
 Calling FoFJK, ICntrl=      2127 FMM=F ISym2X=0 I1Cent= 0 IOpClX= 0 NMat=1 NMatS=1 NMatT=0.
 -------------------------------------------------------------------
 Center     Atomic                   Forces (Hartrees/Bohr)
 Number     Number              X              Y              Z
 -------------------------------------------------------------------
      1        6          -0.000396457    0.000284858    0.000033645
      2        6           0.000454727    0.000275526   -0.000056169
      3        6          -0.000015812   -0.000356285   -0.000021321
      4        1          -0.000002396   -0.000065948   -0.000008000
      5        1          -0.000004806   -0.000081268    0.000012569
      6        1          -0.000002121   -0.000041118    0.000013609
      7        6          -0.000060241    0.000097343   -0.000040996
      8        6          -0.000033190   -0.000006500   -0.000098570
      9        1          -0.000004428   -0.000014633    0.000041158
     10        8           0.000043871   -0.000106753    0.000055574
     11        1          -0.000007235    0.000003290    0.000019621
     12        1           0.000028087    0.000011487    0.000048878
 -------------------------------------------------------------------
 Cartesian Forces:  Max     0.000454727 RMS     0.000140808
 -----------------------------------------------------------------------------------------------
                       Internal Coordinate Forces (Hartree/Bohr or radian)
  Cent   Atom   N1       Length/X         N2         Alpha/Y        N3         Beta/Z          J
 -----------------------------------------------------------------------------------------------
      1  C 
      2  C        1  -0.000074(     1)
      3  C        1  -0.000057(     2)      2  -0.000167(    12)
      4  H        1   0.000002(     3)      2   0.000017(    13)      3  -0.000116(    22)     0
      5  H        2   0.000005(     4)      1   0.000024(    14)      3   0.000226(    23)     0
      6  H        3  -0.000010(     5)      1  -0.000008(    15)      2   0.000276(    24)     0
      7  C        3   0.000006(     6)      1  -0.000128(    16)      6   0.000349(    25)     0
      8  C        2  -0.000026(     7)      1  -0.000020(    17)      5   0.000086(    26)     0
      9  H        7  -0.000024(     8)      3   0.000069(    18)      1   0.000227(    27)     0
     10  O        7   0.000040(     9)      3   0.000060(    19)      9   0.000254(    28)     0
     11  H        8   0.000019(    10)      2  -0.000010(    20)      1  -0.000042(    29)     0
     12  H        8   0.000003(    11)      2   0.000102(    21)     11  -0.000058(    30)     0
 -----------------------------------------------------------------------------------------------
 Internal  Forces:  Max     0.000349343 RMS     0.000124864

 GradGradGradGradGradGradGradGradGradGradGradGradGradGradGradGradGradGrad
 Berny optimization.
 Search for a local minimum.
 Step number   4 out of a maximum of   40
 All quantities printed in internal units (Hartrees-Bohrs-Radians)
 Update second derivatives using D2CorN and points    1    2    3    4
 DE= -1.75D-06 DEPred=-1.17D-06 R= 1.50D+00
 TightC=F SS=  1.41D+00  RLast= 5.46D-03 DXNew= 1.6818D-01 1.6379D-02
 Trust test= 1.50D+00 RLast= 5.46D-03 DXMaxT set to 1.00D-01
 ITU=  1  1  1  0
     Eigenvalues ---    0.02361   0.03860   0.04769   0.06056   0.07159
     Eigenvalues ---    0.12646   0.16119   0.18132   0.19937   0.21654
     Eigenvalues ---    0.27335   0.30794   0.32728   0.33522   0.34612
     Eigenvalues ---    0.34973   0.35617   0.35635   0.35766   0.35982
     Eigenvalues ---    0.39032   0.40784   0.52068   0.53270   0.55803
     Eigenvalues ---    0.56867   0.58892   1.96632   4.31683  22.79239
 RFO step:  Lambda=-8.44640615D-07 EMin= 2.36123081D-02
 Quartic linear search produced a step of  0.52309.
 Variable       Old X    -DE/DX   Delta X   Delta X   Delta X     New X
                                 (Linear)    (Quad)   (Total)
    R2        2.52428  -0.00007  -0.00003  -0.00013  -0.00016   2.52412
    R3        2.74959  -0.00006   0.00009  -0.00017  -0.00008   2.74951
    R4        2.04659   0.00000   0.00000   0.00001   0.00001   2.04660
    R5        2.04447   0.00001   0.00003  -0.00001   0.00003   2.04450
    R6        2.04163  -0.00001  -0.00007   0.00003  -0.00003   2.04160
    R7        2.53541   0.00001  -0.00005   0.00004  -0.00001   2.53540
    R8        2.83718  -0.00003  -0.00014   0.00006  -0.00008   2.83709
    R9        2.04684  -0.00002   0.00003  -0.00009  -0.00006   2.04679
   R10        2.54876   0.00004  -0.00022   0.00001  -0.00021   2.54855
   R11        2.05609   0.00002   0.00011  -0.00001   0.00010   2.05618
   R12        2.08009   0.00000  -0.00009   0.00003  -0.00006   2.08004
    A3        2.08244  -0.00017   0.00023  -0.00018   0.00005   2.08249
    A4        2.11356   0.00002  -0.00023   0.00018  -0.00005   2.11351
    A5        2.14094   0.00002  -0.00006  -0.00018  -0.00024   2.14070
    A6        2.12327  -0.00001   0.00009  -0.00004   0.00005   2.12332
    A7        2.06110  -0.00013  -0.00001  -0.00008  -0.00009   2.06101
    A8        2.06916  -0.00002   0.00048   0.00045   0.00093   2.07009
    A9        2.16890   0.00007  -0.00018   0.00019   0.00001   2.16891
   A10        2.15489   0.00006   0.00013   0.00051   0.00064   2.15553
   A11        1.96160  -0.00001  -0.00041  -0.00006  -0.00047   1.96113
   A12        1.93920   0.00010   0.00018   0.00052   0.00070   1.93990
    D4       -3.06404  -0.00012  -0.00050  -0.00145  -0.00194  -3.06598
    D5        3.05980   0.00023   0.00057   0.00127   0.00185   3.06165
    D6        3.02472   0.00028   0.00047  -0.00025   0.00022   3.02494
    D7        3.01050   0.00035  -0.00005   0.00072   0.00067   3.01117
    D8        3.12606   0.00009   0.00022  -0.00098  -0.00076   3.12529
    D9       -2.95691   0.00023  -0.00031  -0.00104  -0.00135  -2.95827
   D10        3.04817   0.00025   0.00056   0.00086   0.00142   3.04959
   D11        2.62507  -0.00004  -0.00248  -0.00195  -0.00442   2.62065
   D12        2.11688  -0.00006  -0.00027   0.00004  -0.00023   2.11666
         Item               Value     Threshold  Converged?
 Maximum Force            0.000349     0.000450     YES
 RMS     Force            0.000125     0.000300     YES
 Maximum Displacement     0.004422     0.001800     NO 
 RMS     Displacement     0.001063     0.001200     YES
 Predicted change in Energy=-5.746215D-07
 GradGradGradGradGradGradGradGradGradGradGradGradGradGradGradGradGradGrad

 ---------------------------------------------------------------------------------------------------
                            Z-MATRIX (ANGSTROMS AND DEGREES)
   CD    Cent   Atom    N1       Length/X        N2       Alpha/Y        N3        Beta/Z          J
 ---------------------------------------------------------------------------------------------------
      1      1  C 
      2      2  C        1   1.335708(     1)
      3      3  C        1   1.454977(     2)      2  119.318(    12)
      4      4  H        1   1.083012(     3)      2  121.095(    13)      3 -175.668(    22)      0
      5      5  H        2   1.081902(     4)      1  122.653(    14)      3  175.419(    23)      0
      6      6  H        3   1.080368(     5)      1  121.657(    15)      2  173.316(    24)      0
      7      7  C        3   1.341675(     6)      1  118.087(    16)      6  172.527(    25)      0
      8      8  C        2   1.501324(     7)      1  118.607(    17)      5  179.066(    26)      0
      9      9  H        7   1.083112(     8)      3  124.270(    18)      1 -169.496(    27)      0
     10     10  O        7   1.348632(     9)      3  123.503(    19)      9  174.729(    28)      0
     11     11  H        8   1.088085(    10)      2  112.364(    20)      1  150.152(    29)      0
     12     12  H        8   1.100707(    11)      2  111.148(    21)     11  121.275(    30)      0
 ---------------------------------------------------------------------------------------------------
                         Z-Matrix orientation:                         
 ---------------------------------------------------------------------
 Center     Atomic      Atomic             Coordinates (Angstroms)
 Number     Number       Type             X           Y           Z
 ---------------------------------------------------------------------
      1          6           0        0.000000    0.000000    0.000000
      2          6           0        0.000000    0.000000    1.335708
      3          6           0        1.268618    0.000000   -0.712437
      4          1           0       -0.924745    0.070053   -0.559333
      5          1           0       -0.908001    0.072746    1.919449
      6          1           0        1.315777   -0.107034   -1.786455
      7          6           0        2.381376    0.289493   -0.021021
      8          6           0        1.311943   -0.126660    2.054551
      9          1           0        3.347923    0.477969   -0.472016
     10          8           0        2.399936    0.479623    1.314012
     11          1           0        1.305906    0.377056    3.019001
     12          1           0        1.572535   -1.182846    2.222239
 ---------------------------------------------------------------------
                    Distance matrix (angstroms):
                    1          2          3          4          5
     1  C    0.000000
     2  C    1.335708   0.000000
     3  C    1.454977   2.409209   0.000000
     4  H    1.083012   2.109797   2.199816   0.000000
     5  H    2.124628   1.081902   3.416107   2.478841   0.000000
     6  H    2.221294   3.389783   1.080368   2.560689   4.325649
     7  C    2.398999   2.755988   1.341675   3.356839   3.825233
     8  C    2.440987   1.501324   2.770225   3.445848   2.232973
     9  H    3.414651   3.834698   2.147036   4.292984   4.898592
    10  O    2.777834   2.447489   2.369898   3.838057   3.387411
    11  H    3.310880   2.163570   3.750625   4.227828   2.490583
    12  H    2.968222   2.158224   3.178650   3.942501   2.796651
                    6          7          8          9         10
     6  H    0.000000
     7  C    2.099879   0.000000
     8  C    3.841059   2.371681   0.000000
     9  H    2.489899   1.083112   3.300656   0.000000
    10  O    3.336535   1.348632   1.449036   2.022023   0.000000
    11  H    4.829788   3.225839   1.088085   4.045641   2.028400
    12  H    4.158477   2.802539   1.100707   3.628955   2.067189
                   11         12
    11  H    0.000000
    12  H    1.771782   0.000000
 Symmetry turned off by external request.
 Stoichiometry    C5H6O
 Framework group  C1[X(C5H6O)]
 Deg. of freedom    30
 Full point group                 C1      NOp   1
 Rotational constants (GHZ):           5.5723964           5.3735556           2.8479463
 Standard basis: def2TZVP (5D, 7F)
 The following finite field(s) will be applied:
 An electric field of              0.0021 -0.0014 -0.0043
   222 basis functions,   354 primitive gaussians,   252 cartesian basis functions
    22 alpha electrons       22 beta electrons
       nuclear repulsion energy       223.4950479748 Hartrees.
 NAtoms=   12 NActive=   12 NUniq=   12 SFac= 1.00D+00 NAtFMM=   60 NAOKFM=F Big=F
 Integral buffers will be    131072 words long.
 Raffenetti 2 integral format.
 Two-electron integral symmetry is turned off.
 One-electron integrals computed using PRISM.
   1 Symmetry operations used in ECPInt.
 ECPInt:  NShTT=    4095 NPrTT=   12396 LenC2=    4075 LenP2D=   10419.
 LDataN:  DoStor=T MaxTD1= 6 Len=  172
 NBasis=   222 RedAO= T EigKep=  9.55D-05  NBF=   222
 NBsUse=   222 1.00D-06 EigRej= -1.00D+00 NBFU=   222
 The nuclear repulsion energy is now       223.4449956833 hartrees.
 Initial guess from the checkpoint file:  "checkpoint.chk"
 B after Tr=     0.000158   -0.000166    0.000376
         Rot=    1.000000    0.000301    0.000077    0.000235 Ang=   0.04 deg.
 Keep R1 ints in memory in canonical form, NReq=319363885.
 Requested convergence on RMS density matrix=1.00D-08 within 128 cycles.
 Requested convergence on MAX density matrix=1.00D-06.
 Requested convergence on             energy=1.00D-06.
 No special actions if energy rises.
 SCF Done:  E(RB3LYP) =  -269.423616613     A.U. after    8 cycles
            NFock=  8  Conv=0.54D-08     -V/T= 2.0050
   1 Symmetry operations used in ECPInt.
 ECPInt:  NShTT=    4095 NPrTT=   12396 LenC2=    4075 LenP2D=   10419.
 LDataN:  DoStor=T MaxTD1= 7 Len=  274
 Calling FoFJK, ICntrl=      2127 FMM=F ISym2X=0 I1Cent= 0 IOpClX= 0 NMat=1 NMatS=1 NMatT=0.
 -------------------------------------------------------------------
 Center     Atomic                   Forces (Hartrees/Bohr)
 Number     Number              X              Y              Z
 -------------------------------------------------------------------
      1        6          -0.000406974    0.000167032    0.000006359
      2        6           0.000404594    0.000243902    0.000003034
      3        6           0.000036672   -0.000282524    0.000024194
      4        1           0.000003363   -0.000027600    0.000001798
      5        1          -0.000001892   -0.000051433    0.000015001
      6        1           0.000005720   -0.000023161    0.000009097
      7        6           0.000013105   -0.000009265   -0.000123399
      8        6           0.000037203    0.000077102   -0.000031156
      9        1           0.000004919   -0.000005524   -0.000002021
     10        8          -0.000050232   -0.000040460    0.000042457
     11        1          -0.000031811   -0.000039004    0.000041299
     12        1          -0.000014666   -0.000009064    0.000013339
 -------------------------------------------------------------------
 Cartesian Forces:  Max     0.000406974 RMS     0.000122172
 -----------------------------------------------------------------------------------------------
                       Internal Coordinate Forces (Hartree/Bohr or radian)
  Cent   Atom   N1       Length/X         N2         Alpha/Y        N3         Beta/Z          J
 -----------------------------------------------------------------------------------------------
      1  C 
      2  C        1   0.000042(     1)
      3  C        1   0.000033(     2)      2   0.000097(    12)
      4  H        1  -0.000006(     3)      2   0.000003(    13)      3  -0.000048(    22)     0
      5  H        2   0.000006(     4)      1   0.000028(    14)      3   0.000155(    23)     0
      6  H        3  -0.000006(     5)      1   0.000009(    15)      2   0.000125(    24)     0
      7  C        3  -0.000081(     6)      1   0.000007(    16)      6   0.000167(    25)     0
      8  C        2   0.000001(     7)      1   0.000135(    17)      5   0.000067(    26)     0
      9  H        7   0.000004(     8)      3  -0.000001(    18)      1   0.000068(    27)     0
     10  O        7   0.000036(     9)      3  -0.000147(    19)      9   0.000078(    28)     0
     11  H        8   0.000019(    10)      2  -0.000026(    20)      1   0.000080(    29)     0
     12  H        8   0.000007(    11)      2  -0.000018(    21)     11  -0.000036(    30)     0
 -----------------------------------------------------------------------------------------------
 Internal  Forces:  Max     0.000166853 RMS     0.000071895

 GradGradGradGradGradGradGradGradGradGradGradGradGradGradGradGradGradGrad
 Berny optimization.
 Search for a local minimum.
 Step number   5 out of a maximum of   40
 All quantities printed in internal units (Hartrees-Bohrs-Radians)
 Update second derivatives using D2CorN and points    1    2    3    4    5

 DE= -6.92D-07 DEPred=-5.75D-07 R= 1.20D+00
 Trust test= 1.20D+00 RLast= 5.82D-03 DXMaxT set to 1.00D-01
 ITU=  0  1  1  1  0
     Eigenvalues ---    0.02194   0.04045   0.04803   0.06009   0.07145
     Eigenvalues ---    0.12611   0.16114   0.18093   0.19941   0.21664
     Eigenvalues ---    0.27338   0.30793   0.32725   0.33523   0.34614
     Eigenvalues ---    0.34972   0.35615   0.35635   0.35766   0.35984
     Eigenvalues ---    0.39020   0.40570   0.52059   0.53317   0.55787
     Eigenvalues ---    0.56872   0.58878   1.96647   4.31463  22.79230
 RFO step:  Lambda=-2.47571856D-07 EMin= 2.19420600D-02
 Quartic linear search produced a step of  0.14643.
 Variable       Old X    -DE/DX   Delta X   Delta X   Delta X     New X
                                 (Linear)    (Quad)   (Total)
    R2        2.52412   0.00004  -0.00002   0.00003   0.00000   2.52413
    R3        2.74951   0.00003  -0.00001   0.00009   0.00008   2.74959
    R4        2.04660  -0.00001   0.00000  -0.00002  -0.00002   2.04658
    R5        2.04450   0.00001   0.00000   0.00002   0.00002   2.04452
    R6        2.04160  -0.00001  -0.00000  -0.00001  -0.00002   2.04158
    R7        2.53540  -0.00008  -0.00000  -0.00010  -0.00010   2.53529
    R8        2.83709   0.00000  -0.00001  -0.00007  -0.00008   2.83701
    R9        2.04679   0.00000  -0.00001   0.00002   0.00001   2.04680
   R10        2.54855   0.00004  -0.00003   0.00017   0.00014   2.54869
   R11        2.05618   0.00002   0.00001   0.00005   0.00007   2.05625
   R12        2.08004   0.00001  -0.00001   0.00003   0.00002   2.08005
    A3        2.08249   0.00010   0.00001   0.00008   0.00009   2.08258
    A4        2.11351   0.00000  -0.00001  -0.00003  -0.00004   2.11347
    A5        2.14070   0.00003  -0.00004   0.00006   0.00002   2.14072
    A6        2.12332   0.00001   0.00001   0.00001   0.00002   2.12334
    A7        2.06101   0.00001  -0.00001   0.00011   0.00009   2.06110
    A8        2.07009   0.00013   0.00014   0.00001   0.00014   2.07023
    A9        2.16891  -0.00000   0.00000   0.00008   0.00008   2.16900
   A10        2.15553  -0.00015   0.00009  -0.00024  -0.00014   2.15538
   A11        1.96113  -0.00003  -0.00007  -0.00002  -0.00009   1.96104
   A12        1.93990  -0.00002   0.00010  -0.00030  -0.00020   1.93970
    D4       -3.06598  -0.00005  -0.00028  -0.00067  -0.00095  -3.06694
    D5        3.06165   0.00016   0.00027   0.00090   0.00117   3.06282
    D6        3.02494   0.00012   0.00003  -0.00039  -0.00036   3.02458
    D7        3.01117   0.00017   0.00010   0.00057   0.00067   3.01184
    D8        3.12529   0.00007  -0.00011  -0.00060  -0.00071   3.12458
    D9       -2.95827   0.00007  -0.00020  -0.00063  -0.00083  -2.95909
   D10        3.04959   0.00008   0.00021   0.00009   0.00030   3.04989
   D11        2.62065   0.00008  -0.00065   0.00006  -0.00059   2.62006
   D12        2.11666  -0.00004  -0.00003  -0.00043  -0.00047   2.11619
         Item               Value     Threshold  Converged?
 Maximum Force            0.000167     0.000450     YES
 RMS     Force            0.000072     0.000300     YES
 Maximum Displacement     0.001170     0.001800     YES
 RMS     Displacement     0.000403     0.001200     YES
 Predicted change in Energy=-1.238211D-07
 Optimization completed.
    -- Stationary point found.
                       ----------------------------
                       !   Optimized Parameters   !
                       ! (Angstroms and Degrees)  !
 ----------------------                            ----------------------
 !      Name          Value   Derivative information (Atomic Units)     !
 ------------------------------------------------------------------------
 !       R2          1.3357   -DE/DX =    0.0                           !
 !       R3          1.455    -DE/DX =    0.0                           !
 !       R4          1.083    -DE/DX =    0.0                           !
 !       R5          1.0819   -DE/DX =    0.0                           !
 !       R6          1.0804   -DE/DX =    0.0                           !
 !       R7          1.3417   -DE/DX =   -0.0001                        !
 !       R8          1.5013   -DE/DX =    0.0                           !
 !       R9          1.0831   -DE/DX =    0.0                           !
 !       R10         1.3486   -DE/DX =    0.0                           !
 !       R11         1.0881   -DE/DX =    0.0                           !
 !       R12         1.1007   -DE/DX =    0.0                           !
 !       A3        119.3179   -DE/DX =    0.0001                        !
 !       A4        121.0952   -DE/DX =    0.0                           !
 !       A5        122.6531   -DE/DX =    0.0                           !
 !       A6        121.6573   -DE/DX =    0.0                           !
 !       A7        118.087    -DE/DX =    0.0                           !
 !       A8        118.6075   -DE/DX =    0.0001                        !
 !       A9        124.2696   -DE/DX =    0.0                           !
 !       A10       123.5026   -DE/DX =   -0.0001                        !
 !       A11       112.3645   -DE/DX =    0.0                           !
 !       A12       111.1483   -DE/DX =    0.0                           !
 !       D4       -175.6679   -DE/DX =    0.0                           !
 !       D5        175.4194   -DE/DX =    0.0002                        !
 !       D6        173.3162   -DE/DX =    0.0001                        !
 !       D7        172.5273   -DE/DX =    0.0002                        !
 !       D8        179.0661   -DE/DX =    0.0001                        !
 !       D9       -169.4961   -DE/DX =    0.0001                        !
 !       D10       174.7286   -DE/DX =    0.0001                        !
 !       D11       150.1522   -DE/DX =    0.0001                        !
 !       D12       121.2754   -DE/DX =    0.0                           !
 ------------------------------------------------------------------------
 GradGradGradGradGradGradGradGradGradGradGradGradGradGradGradGradGradGrad

 ---------------------------------------------------------------------------------------------------
                            Z-MATRIX (ANGSTROMS AND DEGREES)
   CD    Cent   Atom    N1       Length/X        N2       Alpha/Y        N3        Beta/Z          J
 ---------------------------------------------------------------------------------------------------
      1      1  C 
      2      2  C        1   1.335708(     1)
      3      3  C        1   1.454977(     2)      2  119.318(    12)
      4      4  H        1   1.083012(     3)      2  121.095(    13)      3 -175.668(    22)      0
      5      5  H        2   1.081902(     4)      1  122.653(    14)      3  175.419(    23)      0
      6      6  H        3   1.080368(     5)      1  121.657(    15)      2  173.316(    24)      0
      7      7  C        3   1.341675(     6)      1  118.087(    16)      6  172.527(    25)      0
      8      8  C        2   1.501324(     7)      1  118.607(    17)      5  179.066(    26)      0
      9      9  H        7   1.083112(     8)      3  124.270(    18)      1 -169.496(    27)      0
     10     10  O        7   1.348632(     9)      3  123.503(    19)      9  174.729(    28)      0
     11     11  H        8   1.088085(    10)      2  112.364(    20)      1  150.152(    29)      0
     12     12  H        8   1.100707(    11)      2  111.148(    21)     11  121.275(    30)      0
 ---------------------------------------------------------------------------------------------------
                         Z-Matrix orientation:                         
 ---------------------------------------------------------------------
 Center     Atomic      Atomic             Coordinates (Angstroms)
 Number     Number       Type             X           Y           Z
 ---------------------------------------------------------------------
      1          6           0        0.000000    0.000000    0.000000
      2          6           0        0.000000    0.000000    1.335708
      3          6           0        1.268618    0.000000   -0.712437
      4          1           0       -0.924745    0.070053   -0.559333
      5          1           0       -0.908001    0.072746    1.919449
      6          1           0        1.315777   -0.107034   -1.786455
      7          6           0        2.381376    0.289493   -0.021021
      8          6           0        1.311943   -0.126660    2.054551
      9          1           0        3.347923    0.477969   -0.472016
     10          8           0        2.399936    0.479623    1.314012
     11          1           0        1.305906    0.377056    3.019001
     12          1           0        1.572535   -1.182846    2.222239
 ---------------------------------------------------------------------
                    Distance matrix (angstroms):
                    1          2          3          4          5
     1  C    0.000000
     2  C    1.335708   0.000000
     3  C    1.454977   2.409209   0.000000
     4  H    1.083012   2.109797   2.199816   0.000000
     5  H    2.124628   1.081902   3.416107   2.478841   0.000000
     6  H    2.221294   3.389783   1.080368   2.560689   4.325649
     7  C    2.398999   2.755988   1.341675   3.356839   3.825233
     8  C    2.440987   1.501324   2.770225   3.445848   2.232973
     9  H    3.414651   3.834698   2.147036   4.292984   4.898592
    10  O    2.777834   2.447489   2.369898   3.838057   3.387411
    11  H    3.310880   2.163570   3.750625   4.227828   2.490583
    12  H    2.968222   2.158224   3.178650   3.942501   2.796651
                    6          7          8          9         10
     6  H    0.000000
     7  C    2.099879   0.000000
     8  C    3.841059   2.371681   0.000000
     9  H    2.489899   1.083112   3.300656   0.000000
    10  O    3.336535   1.348632   1.449036   2.022023   0.000000
    11  H    4.829788   3.225839   1.088085   4.045641   2.028400
    12  H    4.158477   2.802539   1.100707   3.628955   2.067189
                   11         12
    11  H    0.000000
    12  H    1.771782   0.000000
 Symmetry turned off by external request.
 Stoichiometry    C5H6O
 Framework group  C1[X(C5H6O)]
 Deg. of freedom    30
 Full point group                 C1      NOp   1
 Rotational constants (GHZ):           5.5723964           5.3735556           2.8479463

 **********************************************************************

            Population analysis using the SCF density.

 **********************************************************************

 Alpha  occ. eigenvalues --  -19.16016 -10.23402 -10.22732 -10.17668 -10.17026
 Alpha  occ. eigenvalues --  -10.17014  -1.06971  -0.81297  -0.77397  -0.66474
 Alpha  occ. eigenvalues --   -0.62621  -0.53384  -0.50779  -0.48595  -0.46177
 Alpha  occ. eigenvalues --   -0.43778  -0.40698  -0.37855  -0.35971  -0.32960
 Alpha  occ. eigenvalues --   -0.30126  -0.20982
 Alpha virt. eigenvalues --   -0.03285   0.04365   0.05553   0.07297   0.07992
 Alpha virt. eigenvalues --    0.09387   0.09899   0.11288   0.13359   0.16546
 Alpha virt. eigenvalues --    0.17528   0.19589   0.20988   0.22247   0.23228
 Alpha virt. eigenvalues --    0.24281   0.25371   0.27124   0.28428   0.30532
 Alpha virt. eigenvalues --    0.31005   0.33432   0.34724   0.36402   0.36854
 Alpha virt. eigenvalues --    0.38245   0.38855   0.40729   0.42378   0.43073
 Alpha virt. eigenvalues --    0.43595   0.45379   0.46194   0.49749   0.51371
 Alpha virt. eigenvalues --    0.53157   0.55553   0.58289   0.60029   0.63093
 Alpha virt. eigenvalues --    0.65519   0.66366   0.68796   0.72682   0.73677
 Alpha virt. eigenvalues --    0.78091   0.81058   0.84642   0.86083   0.89235
 Alpha virt. eigenvalues --    0.91207   0.92938   0.95554   0.97674   0.99385
 Alpha virt. eigenvalues --    1.05665   1.07453   1.09067   1.11132   1.12087
 Alpha virt. eigenvalues --    1.15503   1.18382   1.19641   1.23907   1.26425
 Alpha virt. eigenvalues --    1.29817   1.33449   1.36349   1.40348   1.43324
 Alpha virt. eigenvalues --    1.44647   1.45278   1.48850   1.51385   1.52577
 Alpha virt. eigenvalues --    1.56270   1.60279   1.62759   1.65422   1.67798
 Alpha virt. eigenvalues --    1.70346   1.72220   1.74737   1.77517   1.80116
 Alpha virt. eigenvalues --    1.85243   1.87563   1.90657   1.91726   1.96944
 Alpha virt. eigenvalues --    2.00242   2.01095   2.06694   2.10694   2.12549
 Alpha virt. eigenvalues --    2.14537   2.17885   2.20893   2.22823   2.27169
 Alpha virt. eigenvalues --    2.27824   2.37040   2.39107   2.45573   2.45883
 Alpha virt. eigenvalues --    2.50947   2.52381   2.53075   2.57646   2.60203
 Alpha virt. eigenvalues --    2.61697   2.62366   2.65708   2.67997   2.70922
 Alpha virt. eigenvalues --    2.71290   2.74089   2.76451   2.79290   2.80491
 Alpha virt. eigenvalues --    2.83152   2.84029   2.87434   2.88922   2.91491
 Alpha virt. eigenvalues --    2.94075   2.98168   3.02333   3.02616   3.07485
 Alpha virt. eigenvalues --    3.08356   3.11131   3.13703   3.15604   3.16095
 Alpha virt. eigenvalues --    3.19062   3.19931   3.22504   3.24123   3.25695
 Alpha virt. eigenvalues --    3.28709   3.30153   3.33086   3.36346   3.37523
 Alpha virt. eigenvalues --    3.40008   3.42252   3.45235   3.45289   3.48744
 Alpha virt. eigenvalues --    3.54828   3.58532   3.62936   3.68472   3.69477
 Alpha virt. eigenvalues --    3.78697   3.84336   3.86274   3.91141   3.93881
 Alpha virt. eigenvalues --    3.97555   4.03048   4.04438   4.12303   4.17885
 Alpha virt. eigenvalues --    4.20214   4.25128   4.28472   4.36769   4.39896
 Alpha virt. eigenvalues --    4.45376   4.51998   4.58502   4.63621   4.66497
 Alpha virt. eigenvalues --    4.67812   4.79669   4.84688   4.91564   4.94827
 Alpha virt. eigenvalues --    5.12278   5.18299   5.36562   5.45471   5.75209
 Alpha virt. eigenvalues --    5.85850   5.91240   6.23751   6.33323   6.65566
 Alpha virt. eigenvalues --    6.76781   6.86965   7.15150   7.25624  22.06940
 Alpha virt. eigenvalues --   22.31963  22.42879  22.74733  22.92791  44.05415
          Condensed to atoms (all electrons):
               1          2          3          4          5          6
     1  C    4.868018   0.659733   0.348332   0.414977  -0.036951  -0.050167
     2  C    0.659733   5.011085  -0.066101  -0.029152   0.403193   0.005663
     3  C    0.348332  -0.066101   5.148420  -0.055773   0.004651   0.403070
     4  H    0.414977  -0.029152  -0.055773   0.563330  -0.007989  -0.005147
     5  H   -0.036951   0.403193   0.004651  -0.007989   0.525688  -0.000228
     6  H   -0.050167   0.005663   0.403070  -0.005147  -0.000228   0.596440
     7  C   -0.046857  -0.028888   0.569219   0.003973   0.002130  -0.034574
     8  C   -0.043266   0.354316  -0.035006   0.007155  -0.031926  -0.000456
     9  H    0.007371  -0.001320  -0.087050  -0.000369   0.000163  -0.005032
    10  O   -0.017701  -0.024407  -0.070873  -0.001044   0.003470   0.005837
    11  H    0.002559  -0.034676   0.005439  -0.000288  -0.005147   0.000145
    12  H   -0.006994  -0.077273  -0.006381  -0.000247   0.006079  -0.000347
               7          8          9         10         11         12
     1  C   -0.046857  -0.043266   0.007371  -0.017701   0.002559  -0.006994
     2  C   -0.028888   0.354316  -0.001320  -0.024407  -0.034676  -0.077273
     3  C    0.569219  -0.035006  -0.087050  -0.070873   0.005439  -0.006381
     4  H    0.003973   0.007155  -0.000369  -0.001044  -0.000288  -0.000247
     5  H    0.002130  -0.031926   0.000163   0.003470  -0.005147   0.006079
     6  H   -0.034574  -0.000456  -0.005032   0.005837   0.000145  -0.000347
     7  C    4.744893  -0.045974   0.437271   0.342399  -0.002553   0.032963
     8  C   -0.045974   4.680737   0.005557   0.270206   0.419291   0.390997
     9  H    0.437271   0.005557   0.585254  -0.041696  -0.000623   0.002018
    10  O    0.342399   0.270206  -0.041696   7.894001  -0.029237  -0.065604
    11  H   -0.002553   0.419291  -0.000623  -0.029237   0.563369  -0.050977
    12  H    0.032963   0.390997   0.002018  -0.065604  -0.050977   0.698995
 Mulliken charges:
               1
     1  C   -0.099055
     2  C   -0.172172
     3  C   -0.157948
     4  H    0.110574
     5  H    0.136866
     6  H    0.084796
     7  C    0.025998
     8  C    0.028369
     9  H    0.098455
    10  O   -0.265351
    11  H    0.132698
    12  H    0.076770
 Sum of Mulliken charges =  -0.00000
 Mulliken charges with hydrogens summed into heavy atoms:
               1
     1  C    0.011519
     2  C   -0.035306
     3  C   -0.073152
     7  C    0.124453
     8  C    0.237836
    10  O   -0.265351
 Electronic spatial extent (au):  <R**2>=            784.2905
 Charge=             -0.0000 electrons
 Dipole moment (field-independent basis, Debye):
    X=             -0.9641    Y=             -0.2427    Z=              0.8102  Tot=              1.2825
 Quadrupole moment (field-independent basis, Debye-Ang):
   XX=            -36.8647   YY=            -38.6828   ZZ=            -30.8506
   XY=             -0.7005   XZ=             -1.6259   YZ=             -0.8401
 Traceless Quadrupole moment (field-independent basis, Debye-Ang):
   XX=             -1.3987   YY=             -3.2167   ZZ=              4.6154
   XY=             -0.7005   XZ=             -1.6259   YZ=             -0.8401
 Octapole moment (field-independent basis, Debye-Ang**2):
  XXX=           -132.1720  YYY=            -10.0346  ZZZ=            -57.4296  XYY=            -45.1875
  XXY=             -3.3277  XXZ=            -31.6611  XZZ=            -42.6315  YZZ=             -3.7768
  YYZ=            -23.1911  XYZ=             -3.0536
 Hexadecapole moment (field-independent basis, Debye-Ang**3):
 XXXX=           -581.9502 YYYY=            -62.5138 ZZZZ=           -339.9603 XXXY=            -23.6490
 XXXZ=           -114.2752 YYYX=            -27.2825 YYYZ=             -3.8427 ZZZX=            -74.4550
 ZZZY=              1.6705 XXYY=           -113.9117 XXZZ=           -167.4811 YYZZ=            -75.7527
 XXYZ=             -9.4037 YYXZ=            -25.4515 ZZXY=            -12.0469
 N-N= 2.234449956833D+02 E-N=-1.074716455514D+03  KE= 2.680813398966D+02
 1\1\GINC-BHC0174\FOpt\RB3LYP\def2TZVP\C5H6O1\DHANAWAY\18-Mar-2022\1\\#
  Opt=(Z-matrix, MaxStep=10) B3LYP/Def2TZVP geom=allcheckpoint guess=re
 ad Field=read NoSymm\\int_zmat_initalOpt\\0,1\C\C,1,R2\C,1,R3,2,A3\H,1
 ,R4,2,A4,3,D4,0\H,2,R5,1,A5,3,D5,0\H,3,R6,1,A6,2,D6,0\C,3,R7,1,A7,6,D7
 ,0\C,2,R8,1,A8,5,D8,0\H,7,R9,3,A9,1,D9,0\O,7,R10,3,A10,9,D10,0\H,8,R11
 ,2,A11,1,D11,0\H,8,R12,2,A12,11,D12,0\\R2=1.33570795\R3=1.45497697\R4=
 1.08301218\R5=1.08190209\R6=1.08036845\R7=1.3416747\R8=1.50132388\R9=1
 .0831124\R10=1.34863213\R11=1.08808459\R12=1.10070728\A3=119.31791643\
 A4=121.09515305\A5=122.65307279\A6=121.65727188\A7=118.08700672\A8=118
 .60747249\A9=124.26962082\A10=123.50260343\A11=112.36446888\A12=111.14
 826934\D4=-175.66787472\D5=175.41942107\D6=173.3161782\D7=172.52727315
 \D8=179.06612991\D9=-169.49610165\D10=174.72858398\D11=150.15219426\D1
 2=121.27542062\\Version=ES64L-G16RevA.03\HF=-269.4236166\RMSD=5.421e-0
 9\RMSF=1.222e-04\Dipole=-0.3792934,-0.0954814,0.31875\Quadrupole=-1.03
 98718,-2.3915736,3.4314454,-0.5208251,-1.2087885,-0.6246297\PG=C01 [X(
 C5H6O1)]\\@


 IT IS A CAPITAL MISTAKE TO THEORIZE BEFORE ONE HAS
 DATA.  INSENSIBLY ONE BEGINS TO TWIST FACTS TO SUIT
 THEORIES RATHER THAN THEORIES TO SUIT FACTS.

                                         -- SHERLOCK HOLMES
 Job cpu time:       0 days  0 hours 17 minutes 50.5 seconds.
 Elapsed time:       0 days  0 hours  1 minutes 52.9 seconds.
 File lengths (MBytes):  RWF=     24 Int=      0 D2E=      0 Chk=     32 Scr=      1
 Normal termination of Gaussian 16 at Fri Mar 18 14:27:13 2022.
