 Entering Gaussian System, Link 0=g16
 Input=int_zmat_field_N100.gjf
 Output=int_zmat_field_N100.out
 Initial command:
 /software/gaussian/g16-a03/l1.exe "/local_scratch/9886820/Gau-24278.inp" -scrdir="/local_scratch/9886820/"
 Entering Link 1 = /software/gaussian/g16-a03/l1.exe PID=     24285.
  
 Copyright (c) 1988,1990,1992,1993,1995,1998,2003,2009,2016,
            Gaussian, Inc.  All Rights Reserved.
  
 This is part of the Gaussian(R) 16 program.  It is based on
 the Gaussian(R) 09 system (copyright 2009, Gaussian, Inc.),
 the Gaussian(R) 03 system (copyright 2003, Gaussian, Inc.),
 the Gaussian(R) 98 system (copyright 1998, Gaussian, Inc.),
 the Gaussian(R) 94 system (copyright 1995, Gaussian, Inc.),
 the Gaussian 92(TM) system (copyright 1992, Gaussian, Inc.),
 the Gaussian 90(TM) system (copyright 1990, Gaussian, Inc.),
 the Gaussian 88(TM) system (copyright 1988, Gaussian, Inc.),
 the Gaussian 86(TM) system (copyright 1986, Carnegie Mellon
 University), and the Gaussian 82(TM) system (copyright 1983,
 Carnegie Mellon University). Gaussian is a federally registered
 trademark of Gaussian, Inc.
  
 This software contains proprietary and confidential information,
 including trade secrets, belonging to Gaussian, Inc.
  
 This software is provided under written license and may be
 used, copied, transmitted, or stored only in accord with that
 written license.
  
 The following legend is applicable only to US Government
 contracts under FAR:
  
                    RESTRICTED RIGHTS LEGEND
  
 Use, reproduction and disclosure by the US Government is
 subject to restrictions as set forth in subparagraphs (a)
 and (c) of the Commercial Computer Software - Restricted
 Rights clause in FAR 52.227-19.
  
 Gaussian, Inc.
 340 Quinnipiac St., Bldg. 40, Wallingford CT 06492
  
  
 ---------------------------------------------------------------
 Warning -- This program may not be used in any manner that
 competes with the business of Gaussian, Inc. or will provide
 assistance to any competitor of Gaussian, Inc.  The licensee
 of this program is prohibited from giving any competitor of
 Gaussian, Inc. access to this program.  By using this program,
 the user acknowledges that Gaussian, Inc. is engaged in the
 business of creating and licensing software in the field of
 computational chemistry and represents and warrants to the
 licensee that it is not a competitor of Gaussian, Inc. and that
 it will not use this program in any manner prohibited above.
 ---------------------------------------------------------------
  

 Cite this work as:
 Gaussian 16, Revision A.03,
 M. J. Frisch, G. W. Trucks, H. B. Schlegel, G. E. Scuseria, 
 M. A. Robb, J. R. Cheeseman, G. Scalmani, V. Barone, 
 G. A. Petersson, H. Nakatsuji, X. Li, M. Caricato, A. V. Marenich, 
 J. Bloino, B. G. Janesko, R. Gomperts, B. Mennucci, H. P. Hratchian, 
 J. V. Ortiz, A. F. Izmaylov, J. L. Sonnenberg, D. Williams-Young, 
 F. Ding, F. Lipparini, F. Egidi, J. Goings, B. Peng, A. Petrone, 
 T. Henderson, D. Ranasinghe, V. G. Zakrzewski, J. Gao, N. Rega, 
 G. Zheng, W. Liang, M. Hada, M. Ehara, K. Toyota, R. Fukuda, 
 J. Hasegawa, M. Ishida, T. Nakajima, Y. Honda, O. Kitao, H. Nakai, 
 T. Vreven, K. Throssell, J. A. Montgomery, Jr., J. E. Peralta, 
 F. Ogliaro, M. J. Bearpark, J. J. Heyd, E. N. Brothers, K. N. Kudin, 
 V. N. Staroverov, T. A. Keith, R. Kobayashi, J. Normand, 
 K. Raghavachari, A. P. Rendell, J. C. Burant, S. S. Iyengar, 
 J. Tomasi, M. Cossi, J. M. Millam, M. Klene, C. Adamo, R. Cammi, 
 J. W. Ochterski, R. L. Martin, K. Morokuma, O. Farkas, 
 J. B. Foresman, and D. J. Fox, Gaussian, Inc., Wallingford CT, 2016.
 
 ******************************************
 Gaussian 16:  ES64L-G16RevA.03 25-Dec-2016
                18-Mar-2022 
 ******************************************
 %nprocshared=12
 Will use up to   12 processors via shared memory.
 %chk=checkpoint.chk
 %mem=12GB
 ----------------------------------------------------------------------
 # Opt=(Z-matrix, MaxStep=10) B3LYP/Def2TZVP geom=allcheckpoint guess=r
 ead Field=read NoSymm
 ----------------------------------------------------------------------
 1/8=10,10=7,18=40,26=3,29=7,38=1/1,3;
 2/12=2,15=1,29=3,40=1/2;
 3/5=44,7=101,11=2,14=-6,25=1,30=1,71=1,74=-5,116=-2/1,2,3;
 4/5=1/1;
 5/5=2,38=6/2;
 6/7=2,8=2,9=2,10=2,28=1/1;
 7/29=1,30=1/1,2,3,16;
 1/8=10,10=7,18=40,26=3/3(2);
 2/15=1,29=3/2;
 99//99;
 2/15=1,29=3/2;
 3/5=44,7=101,11=2,14=-2,25=1,30=1,71=1,74=-5/1,2,3;
 4/5=5,16=3,69=1/1;
 5/5=2,38=5/2;
 7/30=1/1,2,3,16;
 1/8=10,18=40,26=3/3(-5);
 2/15=1,29=3/2;
 6/7=2,8=2,9=2,10=2,19=2,28=1/1;
 99/9=1/99;
 Structure from the checkpoint file:  "checkpoint.chk"
 ------------------
 int_zmat_initalOpt
 ------------------
 Charge =  0 Multiplicity = 1
 Z-Matrix found in chk file.
 H
 C,1,R2
 C,2,R3,1,A3
 C,2,R4,1,A4,3,D4,0
 H,3,R5,2,A5,1,D5,0
 C,3,R6,2,A6,5,D6,0
 O,4,R7,2,A7,1,D7,0
 H,4,R8,2,A8,7,D8,0
 H,4,R9,2,A9,7,D9,0
 H,6,R10,3,A10,2,D10,0
 C,6,R11,3,A11,10,D11,0
 H,11,R12,6,A12,3,D12,0
      Variables:
 R2=1.08200856
 R3=1.33499267
 R4=1.50020426
 R5=1.08237055
 R6=1.45539344
 R7=1.4469541
 R8=1.08899691
 R9=1.10358276
 R10=1.08019461
 R11=1.33992651
 R12=1.08290091
 A3=122.45709873
 A4=118.45740082
 A5=121.15302838
 A6=119.25492404
 A7=112.73016872
 A8=112.04979602
 A9=110.96760289
 A10=121.39818524
 A11=118.33735005
 A12=124.2386533
 D4=-177.06177359
 D5=1.81368808
 D6=175.5523208
 D7=-152.85337823
 D8=118.63960822
 D9=-120.63522739
 D10=175.41329332
 D11=171.69027735
 D12=-169.11116027
 Recover connectivity data from disk.

 GradGradGradGradGradGradGradGradGradGradGradGradGradGradGradGradGradGrad
 Berny optimization.
 Initialization pass.
                       ----------------------------
                       !    Initial Parameters    !
                       ! (Angstroms and Degrees)  !
 ----------------------                            ----------------------
 !      Name          Value   Derivative information (Atomic Units)     !
 ------------------------------------------------------------------------
 !       R2          1.082    estimate D2E/DX2                          !
 !       R3          1.335    estimate D2E/DX2                          !
 !       R4          1.5002   estimate D2E/DX2                          !
 !       R5          1.0824   estimate D2E/DX2                          !
 !       R6          1.4554   estimate D2E/DX2                          !
 !       R7          1.447    estimate D2E/DX2                          !
 !       R8          1.089    estimate D2E/DX2                          !
 !       R9          1.1036   estimate D2E/DX2                          !
 !       R10         1.0802   estimate D2E/DX2                          !
 !       R11         1.3399   estimate D2E/DX2                          !
 !       R12         1.0829   estimate D2E/DX2                          !
 !       A3        122.4571   estimate D2E/DX2                          !
 !       A4        118.4574   estimate D2E/DX2                          !
 !       A5        121.153    estimate D2E/DX2                          !
 !       A6        119.2549   estimate D2E/DX2                          !
 !       A7        112.7302   estimate D2E/DX2                          !
 !       A8        112.0498   estimate D2E/DX2                          !
 !       A9        110.9676   estimate D2E/DX2                          !
 !       A10       121.3982   estimate D2E/DX2                          !
 !       A11       118.3374   estimate D2E/DX2                          !
 !       A12       124.2387   estimate D2E/DX2                          !
 !       D4       -177.0618   estimate D2E/DX2                          !
 !       D5          1.8137   estimate D2E/DX2                          !
 !       D6        175.5523   estimate D2E/DX2                          !
 !       D7       -152.8534   estimate D2E/DX2                          !
 !       D8        118.6396   estimate D2E/DX2                          !
 !       D9       -120.6352   estimate D2E/DX2                          !
 !       D10       175.4133   estimate D2E/DX2                          !
 !       D11       171.6903   estimate D2E/DX2                          !
 !       D12      -169.1112   estimate D2E/DX2                          !
 ------------------------------------------------------------------------
 Trust Radius=1.00D-01 FncErr=1.00D-07 GrdErr=1.00D-06 EigMax=2.50D+02 EigMin=1.00D-04
 Number of steps in this run=     40 maximum allowed number of steps=    100.
 GradGradGradGradGradGradGradGradGradGradGradGradGradGradGradGradGradGrad

 ---------------------------------------------------------------------------------------------------
                            Z-MATRIX (ANGSTROMS AND DEGREES)
   CD    Cent   Atom    N1       Length/X        N2       Alpha/Y        N3        Beta/Z          J
 ---------------------------------------------------------------------------------------------------
      1      1  H 
      2      2  C        1   1.082009(     1)
      3      3  C        2   1.334993(     2)      1  122.457(    12)
      4      4  C        2   1.500204(     3)      1  118.457(    13)      3 -177.062(    22)      0
      5      5  H        3   1.082371(     4)      2  121.153(    14)      1    1.814(    23)      0
      6      6  C        3   1.455393(     5)      2  119.255(    15)      5  175.552(    24)      0
      7      7  O        4   1.446954(     6)      2  112.730(    16)      1 -152.853(    25)      0
      8      8  H        4   1.088997(     7)      2  112.050(    17)      7  118.640(    26)      0
      9      9  H        4   1.103583(     8)      2  110.968(    18)      7 -120.635(    27)      0
     10     10  H        6   1.080195(     9)      3  121.398(    19)      2  175.413(    28)      0
     11     11  C        6   1.339927(    10)      3  118.337(    20)     10  171.690(    29)      0
     12     12  H       11   1.082901(    11)      6  124.239(    21)      3 -169.111(    30)      0
 ---------------------------------------------------------------------------------------------------
                         Z-Matrix orientation:                         
 ---------------------------------------------------------------------
 Center     Atomic      Atomic             Coordinates (Angstroms)
 Number     Number       Type             X           Y           Z
 ---------------------------------------------------------------------
      1          1           0        0.000000    0.000000    0.000000
      2          6           0        0.000000    0.000000    1.082009
      3          6           0        1.126458    0.000000    1.798456
      4          6           0       -1.317203   -0.067608    1.796864
      5          1           0        2.095786    0.029316    1.317759
      6          6           0        1.045881    0.058353    3.250445
      7          8           0       -1.274172    0.544328    3.107344
      8          1           0       -2.102451    0.460372    1.257849
      9          1           0       -1.641052   -1.114181    1.929909
     10          1           0        1.930281   -0.013378    3.866490
     11          6           0       -0.130338    0.372614    3.810046
     12          1           0       -0.262568    0.608193    4.858708
 ---------------------------------------------------------------------
                    Distance matrix (angstroms):
                    1          2          3          4          5
     1  H    0.000000
     2  C    1.082009   0.000000
     3  C    2.122111   1.334993   0.000000
     4  C    2.228972   1.500204   2.444597   0.000000
     5  H    2.475817   2.109208   1.082371   3.447815   0.000000
     6  C    3.415065   2.408192   1.455393   2.777216   2.199641
     7  O    3.402263   2.453934   2.787921   1.446954   3.850256
     8  H    2.492875   2.159436   3.306063   1.088997   4.220734
     9  H    2.767490   2.157171   2.986268   1.103583   3.955537
    10  H    4.321563   3.388141   2.218800   3.851292   2.554455
    11  C    3.830441   2.756450   2.401014   2.378097   3.359312
    12  H    4.903660   3.834357   3.415323   3.308149   4.293629
                    6          7          8          9         10
     6  C    0.000000
     7  O    2.374720   0.000000
     8  H    3.747540   2.028233   0.000000
     9  H    3.215317   2.066787   1.773068   0.000000
    10  H    1.080195   3.340039   4.826218   4.209102   0.000000
    11  C    1.339927   1.353378   3.226553   2.833325   2.097219
    12  H    2.144964   2.023535   4.046382   3.666695   2.485848
                   11         12
    11  C    0.000000
    12  H    1.082901   0.000000
 Symmetry turned off by external request.
 Stoichiometry    C5H6O
 Framework group  C1[X(C5H6O)]
 Deg. of freedom    30
 Full point group                 C1      NOp   1
 Rotational constants (GHZ):           5.5674656           5.3638680           2.8341047
 Standard basis: def2TZVP (5D, 7F)
 The following finite field(s) will be applied:
 An electric field of             -0.0023 -0.0065  0.0072
   222 basis functions,   354 primitive gaussians,   252 cartesian basis functions
    22 alpha electrons       22 beta electrons
       nuclear repulsion energy       223.3087130416 Hartrees.
 NAtoms=   12 NActive=   12 NUniq=   12 SFac= 1.00D+00 NAtFMM=   60 NAOKFM=F Big=F
 Integral buffers will be    131072 words long.
 Raffenetti 2 integral format.
 Two-electron integral symmetry is turned off.
 One-electron integrals computed using PRISM.
   1 Symmetry operations used in ECPInt.
 ECPInt:  NShTT=    4095 NPrTT=   12396 LenC2=    4075 LenP2D=   10415.
 LDataN:  DoStor=T MaxTD1= 6 Len=  172
 NBasis=   222 RedAO= T EigKep=  9.37D-05  NBF=   222
 NBsUse=   222 1.00D-06 EigRej= -1.00D+00 NBFU=   222
 The nuclear repulsion energy is now       224.7402537918 hartrees.
 Initial guess from the checkpoint file:  "checkpoint.chk"
 B after Tr=     0.000000    0.000000    0.000000
         Rot=    1.000000   -0.000000    0.000000    0.000000 Ang=   0.00 deg.
 Keep R1 ints in memory in canonical form, NReq=319363885.
 Requested convergence on RMS density matrix=1.00D-08 within 128 cycles.
 Requested convergence on MAX density matrix=1.00D-06.
 Requested convergence on             energy=1.00D-06.
 No special actions if energy rises.
 SCF Done:  E(RB3LYP) =  -269.425863404     A.U. after   10 cycles
            NFock= 10  Conv=0.96D-08     -V/T= 2.0050

 **********************************************************************

            Population analysis using the SCF density.

 **********************************************************************

 Alpha  occ. eigenvalues --  -19.19644 -10.26790 -10.26603 -10.20406 -10.20312
 Alpha  occ. eigenvalues --  -10.19982  -1.10492  -0.84371  -0.80923  -0.69793
 Alpha  occ. eigenvalues --   -0.65950  -0.56667  -0.54068  -0.51920  -0.49748
 Alpha  occ. eigenvalues --   -0.46849  -0.44064  -0.41029  -0.39488  -0.36234
 Alpha  occ. eigenvalues --   -0.33488  -0.24192
 Alpha virt. eigenvalues --   -0.06458   0.00713   0.01438   0.04308   0.04569
 Alpha virt. eigenvalues --    0.05548   0.06915   0.08425   0.10761   0.12892
 Alpha virt. eigenvalues --    0.14003   0.15835   0.17656   0.18797   0.20106
 Alpha virt. eigenvalues --    0.21559   0.23036   0.24009   0.24993   0.26608
 Alpha virt. eigenvalues --    0.27396   0.30442   0.31645   0.33127   0.33764
 Alpha virt. eigenvalues --    0.34779   0.36179   0.37109   0.38205   0.40725
 Alpha virt. eigenvalues --    0.41071   0.42236   0.43326   0.46388   0.48246
 Alpha virt. eigenvalues --    0.49837   0.52566   0.54991   0.56566   0.59725
 Alpha virt. eigenvalues --    0.62209   0.63165   0.65855   0.69219   0.70009
 Alpha virt. eigenvalues --    0.74063   0.77559   0.81492   0.82181   0.84874
 Alpha virt. eigenvalues --    0.88013   0.89692   0.92304   0.93738   0.96310
 Alpha virt. eigenvalues --    1.02647   1.04064   1.06037   1.08056   1.09371
 Alpha virt. eigenvalues --    1.12378   1.15001   1.16354   1.20803   1.23525
 Alpha virt. eigenvalues --    1.27186   1.30044   1.33166   1.37104   1.40047
 Alpha virt. eigenvalues --    1.41797   1.42410   1.45943   1.47919   1.49839
 Alpha virt. eigenvalues --    1.52843   1.56403   1.59402   1.62080   1.64829
 Alpha virt. eigenvalues --    1.66745   1.69449   1.71914   1.73943   1.76298
 Alpha virt. eigenvalues --    1.81975   1.84147   1.87456   1.88228   1.93691
 Alpha virt. eigenvalues --    1.97056   1.97549   2.03184   2.07192   2.09376
 Alpha virt. eigenvalues --    2.11476   2.15303   2.18411   2.19571   2.23132
 Alpha virt. eigenvalues --    2.24963   2.33040   2.35534   2.42162   2.42410
 Alpha virt. eigenvalues --    2.47476   2.48599   2.49870   2.54285   2.56776
 Alpha virt. eigenvalues --    2.57631   2.58797   2.62958   2.65601   2.67748
 Alpha virt. eigenvalues --    2.67819   2.70969   2.73267   2.76268   2.77462
 Alpha virt. eigenvalues --    2.79778   2.80886   2.84199   2.85545   2.87769
 Alpha virt. eigenvalues --    2.91296   2.95532   2.98969   2.99895   3.04534
 Alpha virt. eigenvalues --    3.05315   3.07901   3.10217   3.10925   3.12983
 Alpha virt. eigenvalues --    3.15627   3.16298   3.19136   3.20444   3.23012
 Alpha virt. eigenvalues --    3.24927   3.26571   3.29296   3.32940   3.33302
 Alpha virt. eigenvalues --    3.37160   3.38630   3.41807   3.42700   3.45170
 Alpha virt. eigenvalues --    3.51470   3.54946   3.59241   3.65516   3.66081
 Alpha virt. eigenvalues --    3.74868   3.80756   3.83563   3.87897   3.90074
 Alpha virt. eigenvalues --    3.94283   3.99563   4.01591   4.08745   4.15195
 Alpha virt. eigenvalues --    4.17619   4.22307   4.24711   4.33133   4.36730
 Alpha virt. eigenvalues --    4.42392   4.48520   4.56524   4.59509   4.62916
 Alpha virt. eigenvalues --    4.64290   4.77183   4.81962   4.88854   4.92097
 Alpha virt. eigenvalues --    5.09354   5.15441   5.32206   5.41843   5.71271
 Alpha virt. eigenvalues --    5.82093   5.87000   6.20079   6.29527   6.61416
 Alpha virt. eigenvalues --    6.73119   6.83287   7.11423   7.22113  22.03649
 Alpha virt. eigenvalues --   22.28655  22.39332  22.71624  22.89858  44.01894
          Condensed to atoms (all electrons):
               1          2          3          4          5          6
     1  H    0.502374   0.400872  -0.023661  -0.037903  -0.006323   0.004613
     2  C    0.400872   4.990163   0.661339   0.370834  -0.021996  -0.058993
     3  C   -0.023661   0.661339   4.843101  -0.041918   0.414660   0.363201
     4  C   -0.037903   0.370834  -0.041918   4.703364   0.006909  -0.037597
     5  H   -0.006323  -0.021996   0.414660   0.006909   0.509713  -0.048756
     6  C    0.004613  -0.058993   0.363201  -0.037597  -0.048756   5.111963
     7  O    0.002916  -0.030026  -0.010173   0.281067  -0.000892  -0.072255
     8  H   -0.004410  -0.029660  -0.000438   0.423879  -0.000267   0.005111
     9  H    0.006726  -0.085535  -0.007074   0.343109  -0.000199  -0.002837
    10  H   -0.000206   0.005435  -0.037292  -0.000161  -0.004270   0.396691
    11  C    0.002348  -0.033593  -0.055112  -0.059665   0.004335   0.579835
    12  H    0.000151  -0.002227   0.007632   0.004495  -0.000277  -0.084306
               7          8          9         10         11         12
     1  H    0.002916  -0.004410   0.006726  -0.000206   0.002348   0.000151
     2  C   -0.030026  -0.029660  -0.085535   0.005435  -0.033593  -0.002227
     3  C   -0.010173  -0.000438  -0.007074  -0.037292  -0.055112   0.007632
     4  C    0.281067   0.423879   0.343109  -0.000161  -0.059665   0.004495
     5  H   -0.000892  -0.000267  -0.000199  -0.004270   0.004335  -0.000277
     6  C   -0.072255   0.005111  -0.002837   0.396691   0.579835  -0.084306
     7  O    7.918558  -0.028475  -0.074836   0.005691   0.329408  -0.043674
     8  H   -0.028475   0.566828  -0.064927   0.000139  -0.003224  -0.000661
     9  H   -0.074836  -0.064927   0.809712  -0.000346   0.040986   0.002241
    10  H    0.005691   0.000139  -0.000346   0.575286  -0.036136  -0.005188
    11  C    0.329408  -0.003224   0.040986  -0.036136   4.777918   0.434640
    12  H   -0.043674  -0.000661   0.002241  -0.005188   0.434640   0.603477
 Mulliken charges:
               1
     1  H    0.152502
     2  C   -0.166613
     3  C   -0.114265
     4  C    0.043585
     5  H    0.147364
     6  C   -0.156669
     7  O   -0.277308
     8  H    0.136105
     9  H    0.032981
    10  H    0.100359
    11  C    0.018262
    12  H    0.083699
 Sum of Mulliken charges =  -0.00000
 Mulliken charges with hydrogens summed into heavy atoms:
               1
     2  C   -0.014112
     3  C    0.033098
     4  C    0.212671
     6  C   -0.056310
     7  O   -0.277308
    11  C    0.101960
 Electronic spatial extent (au):  <R**2>=           1431.4423
 Charge=             -0.0000 electrons
 Dipole moment (field-independent basis, Debye):
    X=              0.6652    Y=              0.2587    Z=             -1.7400  Tot=              1.8807
 Quadrupole moment (field-independent basis, Debye-Ang):
   XX=            -34.3263   YY=            -38.7453   ZZ=            -40.5363
   XY=              0.7089   XZ=              3.6546   YZ=              0.7826
 Traceless Quadrupole moment (field-independent basis, Debye-Ang):
   XX=              3.5430   YY=             -0.8760   ZZ=             -2.6670
   XY=              0.7089   XZ=              3.6546   YZ=              0.7826
 Octapole moment (field-independent basis, Debye-Ang**2):
  XXX=             15.7367  YYY=            -13.7518  ZZZ=           -270.4770  XYY=              1.2082
  XXY=             -4.8836  XXZ=            -90.2149  XZZ=             16.8937  YZZ=              0.8519
  YYZ=            -95.2761  XYZ=              2.7063
 Hexadecapole moment (field-independent basis, Debye-Ang**3):
 XXXX=           -271.3523 YYYY=            -66.8538 ZZZZ=          -1549.5844 XXXY=              7.0547
 XXXZ=             39.9869 YYYX=              7.8096 YYYZ=            -52.3679 ZZZX=             62.4633
 ZZZY=            -17.2178 XXYY=            -61.5517 XXZZ=           -326.5419 YYZZ=           -296.9086
 XXYZ=            -21.8856 YYXZ=              1.7098 ZZXY=             10.3480
 N-N= 2.247402537918D+02 E-N=-1.075847321248D+03  KE= 2.680786766525D+02
   1 Symmetry operations used in ECPInt.
 ECPInt:  NShTT=    4095 NPrTT=   12396 LenC2=    4075 LenP2D=   10415.
 LDataN:  DoStor=T MaxTD1= 7 Len=  274
 Calling FoFJK, ICntrl=      2127 FMM=F ISym2X=0 I1Cent= 0 IOpClX= 0 NMat=1 NMatS=1 NMatT=0.
 -------------------------------------------------------------------
 Center     Atomic                   Forces (Hartrees/Bohr)
 Number     Number              X              Y              Z
 -------------------------------------------------------------------
      1        1          -0.000053103    0.001852264    0.000019861
      2        6           0.000123500   -0.002623308    0.000203313
      3        6           0.000242593    0.000386861   -0.000441978
      4        6           0.000211240    0.000906453   -0.000449371
      5        1          -0.000098396    0.000198021   -0.000053143
      6        6          -0.000419640   -0.000111991    0.000178999
      7        8          -0.000317464   -0.000223060    0.000505678
      8        1           0.000131403    0.000037160   -0.000031119
      9        1          -0.000087282   -0.000453978    0.000092845
     10        1           0.000159541    0.000159726   -0.000009592
     11        6           0.000065545   -0.000395930   -0.000175062
     12        1           0.000042064    0.000267783    0.000159569
 -------------------------------------------------------------------
 Cartesian Forces:  Max     0.002623308 RMS     0.000603389
 -----------------------------------------------------------------------------------------------
                       Internal Coordinate Forces (Hartree/Bohr or radian)
  Cent   Atom   N1       Length/X         N2         Alpha/Y        N3         Beta/Z          J
 -----------------------------------------------------------------------------------------------
      1  H 
      2  C        1  -0.000020(     1)
      3  C        2  -0.000190(     2)      1  -0.000911(    12)
      4  C        2   0.000099(     3)      1  -0.000797(    13)      3  -0.000404(    22)     0
      5  H        3  -0.000059(     4)      2  -0.000193(    14)      1   0.000353(    23)     0
      6  C        3   0.000159(     5)      2  -0.000015(    15)      5   0.000007(    24)     0
      7  O        4   0.000354(     6)      2   0.001165(    16)      1  -0.000772(    25)     0
      8  H        4  -0.000061(     7)      2  -0.000242(    17)      7  -0.000087(    26)     0
      9  H        4   0.000467(     8)      2  -0.000058(    18)      7   0.000110(    27)     0
     10  H        6   0.000115(     9)      3  -0.000171(    19)      2   0.000468(    28)     0
     11  C        6  -0.000131(    10)      3   0.000111(    20)     10   0.000162(    29)     0
     12  H       11   0.000208(    11)      6  -0.000060(    21)      3   0.000397(    30)     0
 -----------------------------------------------------------------------------------------------
 Internal  Forces:  Max     0.001164749 RMS     0.000398696

 GradGradGradGradGradGradGradGradGradGradGradGradGradGradGradGradGradGrad
 Berny optimization.
 Search for a local minimum.
 Step number   1 out of a maximum of   40
 All quantities printed in internal units (Hartrees-Bohrs-Radians)
 Second derivative matrix not updated -- first step.
 ITU=  0
     Eigenvalues ---   -0.00329   0.02823   0.05773   0.06893   0.07505
     Eigenvalues ---    0.08507   0.13814   0.17948   0.20021   0.22122
     Eigenvalues ---    0.23466   0.24739   0.28400   0.33289   0.33621
     Eigenvalues ---    0.34925   0.35646   0.35710   0.35753   0.35971
     Eigenvalues ---    0.37058   0.37957   0.39262   0.51194   0.52531
     Eigenvalues ---    0.57036   0.59725   2.41227   3.24618  40.48485
 RFO step:  Lambda=-3.32855531D-03 EMin=-3.29080471D-03
 I=     1 Eig=   -3.29D-03 Dot1= -8.84D-05
 I=     1 Stepn= -2.50D-01 RXN=   2.50D-01 EDone=F
 Mixed    1 eigenvectors in step.  Raw Step.Grad=  8.84D-05.
 RFO eigenvector is Hessian eigenvector with negative curvature.
 Taking step of  2.50D-01 in eigenvector direction(s).  Step.Grad= -1.87D-04.
 Linear search not attempted -- first point.
 Maximum step size (   0.100) exceeded in Quadratic search.
    -- Step size scaled by   0.400
 Variable       Old X    -DE/DX   Delta X   Delta X   Delta X     New X
                                 (Linear)    (Quad)   (Total)
    R2        2.04470  -0.00002   0.00000   0.00000   0.00000   2.04470
    R3        2.52277  -0.00019   0.00000  -0.00002  -0.00002   2.52275
    R4        2.83498   0.00010   0.00000   0.00033   0.00033   2.83530
    R5        2.04538  -0.00006   0.00000   0.00007   0.00007   2.04546
    R6        2.75030   0.00016   0.00000  -0.00031  -0.00031   2.74998
    R7        2.73435   0.00035   0.00000   0.00017   0.00017   2.73451
    R8        2.05791  -0.00006   0.00000  -0.00009  -0.00009   2.05781
    R9        2.08547   0.00047   0.00000   0.00001   0.00001   2.08548
   R10        2.04127   0.00011   0.00000  -0.00000  -0.00000   2.04127
   R11        2.53209  -0.00013   0.00000   0.00026   0.00026   2.53235
   R12        2.04639   0.00021   0.00000   0.00007   0.00007   2.04645
    A3        2.13728  -0.00091   0.00000   0.00026   0.00026   2.13754
    A4        2.06747  -0.00080   0.00000  -0.00207  -0.00207   2.06540
    A5        2.11452  -0.00019   0.00000  -0.00037  -0.00037   2.11415
    A6        2.08139  -0.00002   0.00000   0.00101   0.00101   2.08240
    A7        1.96751   0.00116   0.00000   0.00306   0.00306   1.97057
    A8        1.95564  -0.00024   0.00000   0.00190   0.00190   1.95754
    A9        1.93675  -0.00006   0.00000  -0.00651  -0.00651   1.93024
   A10        2.11880  -0.00017   0.00000  -0.00060  -0.00060   2.11820
   A11        2.06538   0.00011   0.00000   0.00208   0.00208   2.06746
   A12        2.16837  -0.00006   0.00000   0.00007   0.00007   2.16844
    D4       -3.09031  -0.00040   0.00000   0.05558   0.05558  -3.03473
    D5        0.03165   0.00035   0.00000   0.04338   0.04338   0.07503
    D6        3.06397   0.00001   0.00000   0.01310   0.01310   3.07706
    D7       -2.66779  -0.00077   0.00000  -0.06100  -0.06100  -2.72879
    D8        2.07065  -0.00009   0.00000   0.00672   0.00672   2.07737
    D9       -2.10548   0.00011   0.00000   0.00265   0.00265  -2.10283
   D10        3.06154   0.00047   0.00000  -0.00365  -0.00365   3.05789
   D11        2.99656   0.00016   0.00000   0.01663   0.01663   3.01319
   D12       -2.95155   0.00040   0.00000  -0.02700  -0.02700  -2.97854
         Item               Value     Threshold  Converged?
 Maximum Force            0.001165     0.000450     NO 
 RMS     Force            0.000399     0.000300     NO 
 Maximum Displacement     0.061000     0.001800     NO 
 RMS     Displacement     0.018257     0.001200     NO 
 Predicted change in Energy=-5.181563D-05
 GradGradGradGradGradGradGradGradGradGradGradGradGradGradGradGradGradGrad

 ---------------------------------------------------------------------------------------------------
                            Z-MATRIX (ANGSTROMS AND DEGREES)
   CD    Cent   Atom    N1       Length/X        N2       Alpha/Y        N3        Beta/Z          J
 ---------------------------------------------------------------------------------------------------
      1      1  H 
      2      2  C        1   1.082009(     1)
      3      3  C        2   1.334983(     2)      1  122.472(    12)
      4      4  C        2   1.500378(     3)      1  118.339(    13)      3 -173.877(    22)      0
      5      5  H        3   1.082409(     4)      2  121.132(    14)      1    4.299(    23)      0
      6      6  C        3   1.455228(     5)      2  119.313(    15)      5  176.303(    24)      0
      7      7  O        4   1.447042(     6)      2  112.906(    16)      1 -156.348(    25)      0
      8      8  H        4   1.088947(     7)      2  112.159(    17)      7  119.025(    26)      0
      9      9  H        4   1.103587(     8)      2  110.595(    18)      7 -120.484(    27)      0
     10     10  H        6   1.080194(     9)      3  121.364(    19)      2  175.204(    28)      0
     11     11  C        6   1.340062(    10)      3  118.457(    20)     10  172.643(    29)      0
     12     12  H       11   1.082936(    11)      6  124.243(    21)      3 -170.658(    30)      0
 ---------------------------------------------------------------------------------------------------
                         Z-Matrix orientation:                         
 ---------------------------------------------------------------------
 Center     Atomic      Atomic             Coordinates (Angstroms)
 Number     Number       Type             X           Y           Z
 ---------------------------------------------------------------------
      1          1           0        0.000000    0.000000    0.000000
      2          6           0        0.000000    0.000000    1.082009
      3          6           0        1.126265    0.000000    1.798743
      4          6           0       -1.313034   -0.140853    1.794215
      5          1           0        2.094423    0.069452    1.319728
      6          6           0        1.046109   -0.013324    3.251702
      7          8           0       -1.286682    0.399783    3.136210
      8          1           0       -2.116217    0.387979    1.283295
      9          1           0       -1.601349   -1.203391    1.870320
     10          1           0        1.933291   -0.090858    3.863024
     11          6           0       -0.140443    0.222926    3.827937
     12          1           0       -0.281692    0.378964    4.890222
 ---------------------------------------------------------------------
                    Distance matrix (angstroms):
                    1          2          3          4          5
     1  H    0.000000
     2  C    1.082009   0.000000
     3  C    2.122251   1.334983   0.000000
     4  C    2.227802   1.500378   2.443366   0.000000
     5  H    2.476513   2.109015   1.082409   3.446756   0.000000
     6  C    3.415858   2.408753   1.455228   2.775984   2.199622
     7  O    3.413384   2.456648   2.787643   1.447042   3.852350
     8  H    2.505145   2.160884   3.306041   1.088947   4.222829
     9  H    2.740541   2.152650   2.982138   1.103587   3.947406
    10  H    4.320743   3.388202   2.218288   3.849817   2.553432
    11  C    3.836994   2.758540   2.402471   2.375569   3.362929
    12  H    4.912966   3.837376   3.418069   3.304412   4.300017
                    6          7          8          9         10
     6  C    0.000000
     7  O    2.371900   0.000000
     8  H    3.746462   2.030163   0.000000
     9  H    3.214577   2.066799   1.772610   0.000000
    10  H    1.080194   3.337246   4.825225   4.207407   0.000000
    11  C    1.340062   1.350419   3.225853   2.828584   2.097632
    12  H    2.145156   2.021633   4.046664   3.655838   2.486366
                   11         12
    11  C    0.000000
    12  H    1.082936   0.000000
 Symmetry turned off by external request.
 Stoichiometry    C5H6O
 Framework group  C1[X(C5H6O)]
 Deg. of freedom    30
 Full point group                 C1      NOp   1
 Rotational constants (GHZ):           5.5754615           5.3620770           2.8330328
 Standard basis: def2TZVP (5D, 7F)
 The following finite field(s) will be applied:
 An electric field of             -0.0023 -0.0065  0.0072
   222 basis functions,   354 primitive gaussians,   252 cartesian basis functions
    22 alpha electrons       22 beta electrons
       nuclear repulsion energy       223.3552490643 Hartrees.
 NAtoms=   12 NActive=   12 NUniq=   12 SFac= 1.00D+00 NAtFMM=   60 NAOKFM=F Big=F
 Integral buffers will be    131072 words long.
 Raffenetti 2 integral format.
 Two-electron integral symmetry is turned off.
 One-electron integrals computed using PRISM.
   1 Symmetry operations used in ECPInt.
 ECPInt:  NShTT=    4095 NPrTT=   12396 LenC2=    4075 LenP2D=   10415.
 LDataN:  DoStor=T MaxTD1= 6 Len=  172
 NBasis=   222 RedAO= T EigKep=  9.22D-05  NBF=   222
 NBsUse=   222 1.00D-06 EigRej= -1.00D+00 NBFU=   222
 The nuclear repulsion energy is now       224.8329404565 hartrees.
 Initial guess from the checkpoint file:  "checkpoint.chk"
 B after Tr=    -0.003659    0.099535    0.005934
         Rot=    0.999559   -0.025249   -0.000335   -0.015614 Ang=  -3.40 deg.
 ExpMin= 9.52D-02 ExpMax= 2.70D+04 ExpMxC= 9.22D+02 IAcc=2 IRadAn=         4 AccDes= 0.00D+00
 Harris functional with IExCor=  402 and IRadAn=       4 diagonalized for initial guess.
 HarFok:  IExCor=  402 AccDes= 0.00D+00 IRadAn=         4 IDoV= 1 UseB2=F ITyADJ=14
 ICtDFT=  3500011 ScaDFX=  1.000000  1.000000  1.000000  1.000000
 FoFCou: FMM=F IPFlag=           0 FMFlag=      100000 FMFlg1=           0
         NFxFlg=           0 DoJE=T BraDBF=F KetDBF=T FulRan=T
         wScrn=  0.000000 ICntrl=       500 IOpCl=  0 I1Cent=   200000004 NGrid=           0
         NMat0=    1 NMatS0=      1 NMatT0=    0 NMatD0=    1 NMtDS0=    0 NMtDT0=    0
 Symmetry not used in FoFCou.
 Keep R1 ints in memory in canonical form, NReq=319363885.
 Requested convergence on RMS density matrix=1.00D-08 within 128 cycles.
 Requested convergence on MAX density matrix=1.00D-06.
 Requested convergence on             energy=1.00D-06.
 No special actions if energy rises.
 Integral accuracy reduced to 1.0D-05 until final iterations.
 Initial convergence to 1.0D-05 achieved.  Increase integral accuracy.
 SCF Done:  E(RB3LYP) =  -269.425793146     A.U. after   11 cycles
            NFock= 11  Conv=0.56D-08     -V/T= 2.0050
   1 Symmetry operations used in ECPInt.
 ECPInt:  NShTT=    4095 NPrTT=   12396 LenC2=    4075 LenP2D=   10415.
 LDataN:  DoStor=T MaxTD1= 7 Len=  274
 Calling FoFJK, ICntrl=      2127 FMM=F ISym2X=0 I1Cent= 0 IOpClX= 0 NMat=1 NMatS=1 NMatT=0.
 -------------------------------------------------------------------
 Center     Atomic                   Forces (Hartrees/Bohr)
 Number     Number              X              Y              Z
 -------------------------------------------------------------------
      1        1          -0.000235699    0.003550878    0.000015202
      2        6           0.000284199   -0.004994516    0.001036955
      3        6           0.000709747    0.001151318   -0.000796615
      4        6           0.000180491    0.000358917   -0.000805235
      5        1          -0.000140595   -0.000009169   -0.000055403
      6        6          -0.000769136    0.000108613    0.000647216
      7        8          -0.002817592    0.000039202   -0.001255988
      8        1           0.000132812    0.000320442    0.000158252
      9        1          -0.000448365   -0.000526723    0.000035319
     10        1           0.000139204   -0.000007072   -0.000019550
     11        6           0.002730997   -0.000612536    0.000749806
     12        1           0.000233937    0.000620644    0.000290040
 -------------------------------------------------------------------
 Cartesian Forces:  Max     0.004994516 RMS     0.001314103
 -----------------------------------------------------------------------------------------------
                       Internal Coordinate Forces (Hartree/Bohr or radian)
  Cent   Atom   N1       Length/X         N2         Alpha/Y        N3         Beta/Z          J
 -----------------------------------------------------------------------------------------------
      1  H 
      2  C        1  -0.000015(     1)
      3  C        2   0.002888(     2)      1  -0.015391(    12)
      4  C        2   0.001679(     3)      1  -0.015463(    13)      3   0.000386(    22)     0
      5  H        3  -0.000102(     4)      2  -0.000229(    14)      1  -0.001706(    23)     0
      6  C        3   0.001535(     5)      2   0.012956(    15)      5  -0.001694(    24)     0
      7  O        4  -0.001201(     6)      2   0.006927(    16)      1   0.002238(    25)     0
      8  H        4  -0.000017(     7)      2  -0.000144(    17)      7  -0.000714(    26)     0
      9  H        4   0.000627(     8)      2   0.000531(    18)      7  -0.000291(    27)     0
     10  H        6   0.000104(     9)      3  -0.000194(    19)      2  -0.001585(    28)     0
     11  C        6  -0.002177(    10)      3   0.005800(    20)     10  -0.001591(    29)     0
     12  H       11   0.000343(    11)      6  -0.000412(    21)      3   0.001023(    30)     0
 -----------------------------------------------------------------------------------------------
 Internal  Forces:  Max     0.015463482 RMS     0.005046168

 GradGradGradGradGradGradGradGradGradGradGradGradGradGradGradGradGradGrad
 Berny optimization.
 Search for a local minimum.
 Step number   2 out of a maximum of   40
 All quantities printed in internal units (Hartrees-Bohrs-Radians)
 Update second derivatives using D2CorN and points    2    1
 ITU=  0  0
     Eigenvalues ---    0.02151   0.02843   0.05787   0.06895   0.07505
     Eigenvalues ---    0.08511   0.13815   0.17950   0.20034   0.22141
     Eigenvalues ---    0.23467   0.24741   0.28401   0.33289   0.33621
     Eigenvalues ---    0.34925   0.35646   0.35710   0.35753   0.35971
     Eigenvalues ---    0.37058   0.37957   0.39262   0.51201   0.52533
     Eigenvalues ---    0.57036   0.59725   2.41231   3.24634  40.48526
 RFO step:  Lambda=-2.09288249D-05 EMin= 2.15144664D-02
 Quartic linear search produced a step of -0.80912.
 Variable       Old X    -DE/DX   Delta X   Delta X   Delta X     New X
                                 (Linear)    (Quad)   (Total)
    R2        2.04470  -0.00002  -0.00000  -0.00005  -0.00005   2.04465
    R3        2.52275   0.00289   0.00001  -0.00047  -0.00046   2.52230
    R4        2.83530   0.00168  -0.00027   0.00005  -0.00021   2.83509
    R5        2.04546  -0.00010  -0.00006  -0.00018  -0.00024   2.04522
    R6        2.74998   0.00154   0.00025   0.00038   0.00064   2.75062
    R7        2.73451  -0.00120  -0.00013   0.00092   0.00079   2.73530
    R8        2.05781  -0.00002   0.00008  -0.00013  -0.00006   2.05776
    R9        2.08548   0.00063  -0.00001   0.00149   0.00149   2.08696
   R10        2.04127   0.00010   0.00000   0.00033   0.00033   2.04160
   R11        2.53235  -0.00218  -0.00021  -0.00020  -0.00041   2.53194
   R12        2.04645   0.00034  -0.00005   0.00066   0.00061   2.04706
    A3        2.13754  -0.01539  -0.00021  -0.00267  -0.00288   2.13466
    A4        2.06540  -0.01546   0.00167   0.00056   0.00224   2.06764
    A5        2.11415  -0.00023   0.00030  -0.00063  -0.00033   2.11382
    A6        2.08240   0.01296  -0.00082  -0.00032  -0.00114   2.08126
    A7        1.97057   0.00693  -0.00248   0.00202  -0.00046   1.97012
    A8        1.95754  -0.00014  -0.00154  -0.00090  -0.00244   1.95510
    A9        1.93024   0.00053   0.00527  -0.00038   0.00488   1.93512
   A10        2.11820  -0.00019   0.00048  -0.00147  -0.00098   2.11722
   A11        2.06746   0.00580  -0.00168   0.00103  -0.00066   2.06680
   A12        2.16844  -0.00041  -0.00006  -0.00134  -0.00139   2.16705
    D4       -3.03473   0.00039  -0.04497  -0.00157  -0.04654  -3.08127
    D5        0.07503  -0.00171  -0.03510   0.00383  -0.03126   0.04377
    D6        3.07706  -0.00169  -0.01060  -0.00332  -0.01392   3.06315
    D7       -2.72879   0.00224   0.04936  -0.00803   0.04132  -2.68747
    D8        2.07737  -0.00071  -0.00544   0.00019  -0.00524   2.07213
    D9       -2.10283  -0.00029  -0.00214  -0.00043  -0.00257  -2.10541
   D10        3.05789  -0.00158   0.00295   0.00695   0.00990   3.06779
   D11        3.01319  -0.00159  -0.01345  -0.00285  -0.01630   2.99689
   D12       -2.97854   0.00102   0.02184   0.00416   0.02601  -2.95254
         Item               Value     Threshold  Converged?
 Maximum Force            0.015463     0.000450     NO 
 RMS     Force            0.005046     0.000300     NO 
 Maximum Displacement     0.046541     0.001800     NO 
 RMS     Displacement     0.014342     0.001200     NO 
 Predicted change in Energy=-2.874369D-05
 GradGradGradGradGradGradGradGradGradGradGradGradGradGradGradGradGradGrad

 ---------------------------------------------------------------------------------------------------
                            Z-MATRIX (ANGSTROMS AND DEGREES)
   CD    Cent   Atom    N1       Length/X        N2       Alpha/Y        N3        Beta/Z          J
 ---------------------------------------------------------------------------------------------------
      1      1  H 
      2      2  C        1   1.081981(     1)
      3      3  C        2   1.334743(     2)      1  122.307(    12)
      4      4  C        2   1.500265(     3)      1  118.467(    13)      3 -176.544(    22)      0
      5      5  H        3   1.082284(     4)      2  121.113(    14)      1    2.508(    23)      0
      6      6  C        3   1.455566(     5)      2  119.248(    15)      5  175.505(    24)      0
      7      7  O        4   1.447460(     6)      2  112.879(    16)      1 -153.981(    25)      0
      8      8  H        4   1.088918(     7)      2  112.019(    17)      7  118.724(    26)      0
      9      9  H        4   1.104374(     8)      2  110.874(    18)      7 -120.631(    27)      0
     10     10  H        6   1.080371(     9)      3  121.308(    19)      2  175.771(    28)      0
     11     11  C        6   1.339844(    10)      3  118.419(    20)     10  171.709(    29)      0
     12     12  H       11   1.083257(    11)      6  124.163(    21)      3 -169.168(    30)      0
 ---------------------------------------------------------------------------------------------------
                         Z-Matrix orientation:                         
 ---------------------------------------------------------------------
 Center     Atomic      Atomic             Coordinates (Angstroms)
 Number     Number       Type             X           Y           Z
 ---------------------------------------------------------------------
      1          1           0        0.000000    0.000000    0.000000
      2          6           0        0.000000    0.000000    1.081981
      3          6           0        1.128118    0.000000    1.795345
      4          6           0       -1.316471   -0.079510    1.797088
      5          1           0        2.095544    0.040542    1.311835
      6          6           0        1.050835    0.044031    3.248191
      7          8           0       -1.275365    0.509043    3.118850
      8          1           0       -2.102041    0.456825    1.267024
      9          1           0       -1.639240   -1.129425    1.911720
     10          1           0        1.938856   -0.022602    3.859893
     11          6           0       -0.126828    0.338097    3.815480
     12          1           0       -0.256416    0.561054    4.867594
 ---------------------------------------------------------------------
                    Distance matrix (angstroms):
                    1          2          3          4          5
     1  H    0.000000
     2  C    1.081981   0.000000
     3  C    2.120357   1.334743   0.000000
     4  C    2.229112   1.500265   2.445881   0.000000
     5  H    2.472622   2.108502   1.082284   3.448438   0.000000
     6  C    3.414225   2.408041   1.455566   2.779406   2.200205
     7  O    3.407771   2.456525   2.790612   1.447460   3.853287
     8  H    2.496520   2.159052   3.304805   1.088918   4.218414
     9  H    2.759961   2.156659   2.991222   1.104374   3.959457
    10  H    4.319543   3.387694   2.218145   3.854291   2.553652
    11  C    3.832530   2.757248   2.402112   2.379822   3.360910
    12  H    4.906526   3.835544   3.416201   3.310898   4.294889
                    6          7          8          9         10
     6  C    0.000000
     7  O    2.375747   0.000000
     8  H    3.746471   2.028639   0.000000
     9  H    3.224850   2.067400   1.773698   0.000000
    10  H    1.080371   3.341109   4.825108   4.221754   0.000000
    11  C    1.339844   1.354125   3.226483   2.839949   2.097409
    12  H    2.144455   2.024616   4.047381   3.675202   2.485022
                   11         12
    11  C    0.000000
    12  H    1.083257   0.000000
 Symmetry turned off by external request.
 Stoichiometry    C5H6O
 Framework group  C1[X(C5H6O)]
 Deg. of freedom    30
 Full point group                 C1      NOp   1
 Rotational constants (GHZ):           5.5657638           5.3589628           2.8298921
 Standard basis: def2TZVP (5D, 7F)
 The following finite field(s) will be applied:
 An electric field of             -0.0023 -0.0065  0.0072
   222 basis functions,   354 primitive gaussians,   252 cartesian basis functions
    22 alpha electrons       22 beta electrons
       nuclear repulsion energy       223.2334422702 Hartrees.
 NAtoms=   12 NActive=   12 NUniq=   12 SFac= 1.00D+00 NAtFMM=   60 NAOKFM=F Big=F
 Integral buffers will be    131072 words long.
 Raffenetti 2 integral format.
 Two-electron integral symmetry is turned off.
 One-electron integrals computed using PRISM.
   1 Symmetry operations used in ECPInt.
 ECPInt:  NShTT=    4095 NPrTT=   12396 LenC2=    4075 LenP2D=   10415.
 LDataN:  DoStor=T MaxTD1= 6 Len=  172
 NBasis=   222 RedAO= T EigKep=  9.35D-05  NBF=   222
 NBsUse=   222 1.00D-06 EigRej= -1.00D+00 NBFU=   222
 The nuclear repulsion energy is now       224.6744895031 hartrees.
 Lowest energy guess from the checkpoint file:  "checkpoint.chk"
 B after Tr=    -0.005888    0.028566   -0.000162
         Rot=    0.999975   -0.006157   -0.001147   -0.003410 Ang=  -0.82 deg.
 B after Tr=    -0.004664   -0.071188   -0.002290
         Rot=    0.999743    0.019112   -0.000822    0.012177 Ang=   2.60 deg.
 Keep R1 ints in memory in canonical form, NReq=319363885.
 Requested convergence on RMS density matrix=1.00D-08 within 128 cycles.
 Requested convergence on MAX density matrix=1.00D-06.
 Requested convergence on             energy=1.00D-06.
 No special actions if energy rises.
 Integral accuracy reduced to 1.0D-05 until final iterations.
 Initial convergence to 1.0D-05 achieved.  Increase integral accuracy.
 SCF Done:  E(RB3LYP) =  -269.425879915     A.U. after    9 cycles
            NFock=  9  Conv=0.50D-08     -V/T= 2.0050
   1 Symmetry operations used in ECPInt.
 ECPInt:  NShTT=    4095 NPrTT=   12396 LenC2=    4075 LenP2D=   10415.
 LDataN:  DoStor=T MaxTD1= 7 Len=  274
 Calling FoFJK, ICntrl=      2127 FMM=F ISym2X=0 I1Cent= 0 IOpClX= 0 NMat=1 NMatS=1 NMatT=0.
 -------------------------------------------------------------------
 Center     Atomic                   Forces (Hartrees/Bohr)
 Number     Number              X              Y              Z
 -------------------------------------------------------------------
      1        1          -0.000337442    0.002221475   -0.000030330
      2        6           0.000227852   -0.002944231    0.000258375
      3        6           0.000112966    0.000712817   -0.000201080
      4        6           0.000111681    0.000116711   -0.000301573
      5        1          -0.000028417   -0.000036346   -0.000002181
      6        6          -0.000267343    0.000036094    0.000196503
      7        8           0.000231620   -0.000372420    0.000462676
      8        1           0.000038208    0.000038382   -0.000069304
      9        1          -0.000072881    0.000019442   -0.000021534
     10        1          -0.000014170    0.000015988    0.000035005
     11        6           0.000087702    0.000116593   -0.000251733
     12        1          -0.000089775    0.000075496   -0.000074825
 -------------------------------------------------------------------
 Cartesian Forces:  Max     0.002944231 RMS     0.000648819
 -----------------------------------------------------------------------------------------------
                       Internal Coordinate Forces (Hartree/Bohr or radian)
  Cent   Atom   N1       Length/X         N2         Alpha/Y        N3         Beta/Z          J
 -----------------------------------------------------------------------------------------------
      1  H 
      2  C        1   0.000030(     1)
      3  C        2  -0.000328(     2)      1   0.001396(    12)
      4  C        2  -0.000227(     3)      1   0.000860(    13)      3  -0.000000(    22)     0
      5  H        3  -0.000026(     4)      2  -0.000028(    14)      1  -0.001347(    23)     0
      6  C        3  -0.000072(     5)      2  -0.001804(    15)      5  -0.001284(    24)     0
      7  O        4   0.000278(     6)      2  -0.000211(    16)      1  -0.001550(    25)     0
      8  H        4   0.000025(     7)      2  -0.000173(    17)      7  -0.000010(    26)     0
      9  H        4   0.000001(     8)      2   0.000117(    18)      7  -0.000107(    27)     0
     10  H        6   0.000007(     9)      3   0.000078(    19)      2  -0.000380(    28)     0
     11  C        6  -0.000094(    10)      3  -0.001026(    20)     10  -0.000404(    29)     0
     12  H       11  -0.000046(    11)      6   0.000222(    21)      3   0.000125(    30)     0
 -----------------------------------------------------------------------------------------------
 Internal  Forces:  Max     0.001804275 RMS     0.000673183

 GradGradGradGradGradGradGradGradGradGradGradGradGradGradGradGradGradGrad
 Berny optimization.
 Search for a local minimum.
 Step number   3 out of a maximum of   40
 All quantities printed in internal units (Hartrees-Bohrs-Radians)
 Update second derivatives using D2CorN and points    2    1    3
 DE= -1.65D-05 DEPred=-2.87D-05 R= 5.74D-01
 TightC=F SS=  1.41D+00  RLast= 2.62D-02 DXNew= 1.6818D-01 7.8586D-02
 Trust test= 5.74D-01 RLast= 2.62D-02 DXMaxT set to 1.00D-01
 ITU=  1  0  0
     Eigenvalues ---    0.01314   0.02681   0.05786   0.06905   0.07550
     Eigenvalues ---    0.08667   0.13599   0.17657   0.19963   0.21952
     Eigenvalues ---    0.23466   0.24749   0.28381   0.33289   0.33613
     Eigenvalues ---    0.34926   0.35652   0.35709   0.35753   0.35971
     Eigenvalues ---    0.37056   0.37919   0.39268   0.51223   0.52509
     Eigenvalues ---    0.57041   0.59723   2.41171   3.24680  40.48650
 RFO step:  Lambda=-9.76555239D-06 EMin= 1.31415710D-02
 Quartic linear search produced a step of  0.38209.
 Variable       Old X    -DE/DX   Delta X   Delta X   Delta X     New X
                                 (Linear)    (Quad)   (Total)
    R2        2.04465   0.00003  -0.00002   0.00014   0.00012   2.04477
    R3        2.52230  -0.00033  -0.00018   0.00026   0.00008   2.52238
    R4        2.83509  -0.00023   0.00004  -0.00079  -0.00074   2.83435
    R5        2.04522  -0.00003  -0.00006  -0.00006  -0.00012   2.04510
    R6        2.75062  -0.00007   0.00012   0.00063   0.00075   2.75137
    R7        2.73530   0.00028   0.00037   0.00003   0.00039   2.73570
    R8        2.05776   0.00003  -0.00006   0.00019   0.00013   2.05789
    R9        2.08696   0.00000   0.00057  -0.00049   0.00008   2.08705
   R10        2.04160   0.00001   0.00013  -0.00009   0.00004   2.04164
   R11        2.53194  -0.00009  -0.00006  -0.00055  -0.00061   2.53133
   R12        2.04706  -0.00005   0.00026  -0.00038  -0.00013   2.04693
    A3        2.13466   0.00140  -0.00100   0.00354   0.00254   2.13720
    A4        2.06764   0.00086   0.00006  -0.00480  -0.00474   2.06291
    A5        2.11382  -0.00003  -0.00027   0.00028   0.00002   2.11384
    A6        2.08126  -0.00180  -0.00005  -0.00038  -0.00043   2.08084
    A7        1.97012  -0.00021   0.00100   0.00027   0.00127   1.97138
    A8        1.95510  -0.00017  -0.00021  -0.00113  -0.00133   1.95377
    A9        1.93512   0.00012  -0.00062   0.00064   0.00002   1.93514
   A10        2.11722   0.00008  -0.00060   0.00088   0.00027   2.11749
   A11        2.06680  -0.00103   0.00054   0.00003   0.00057   2.06737
   A12        2.16705   0.00022  -0.00051   0.00128   0.00078   2.16783
    D4       -3.08127  -0.00000   0.00345   0.00218   0.00563  -3.07564
    D5        0.04377  -0.00135   0.00463  -0.00007   0.00456   0.04833
    D6        3.06315  -0.00128  -0.00031  -0.00031  -0.00062   3.06253
    D7       -2.68747  -0.00155  -0.00752  -0.00443  -0.01195  -2.69942
    D8        2.07213  -0.00001   0.00056  -0.00045   0.00011   2.07224
    D9       -2.10541  -0.00011   0.00003  -0.00172  -0.00169  -2.10710
   D10        3.06779  -0.00038   0.00239   0.00277   0.00516   3.07295
   D11        2.99689  -0.00040   0.00012   0.00088   0.00101   2.99790
   D12       -2.95254   0.00012  -0.00038  -0.00089  -0.00127  -2.95381
         Item               Value     Threshold  Converged?
 Maximum Force            0.001804     0.000450     NO 
 RMS     Force            0.000673     0.000300     NO 
 Maximum Displacement     0.011952     0.001800     NO 
 RMS     Displacement     0.002961     0.001200     NO 
 Predicted change in Energy=-4.682961D-06
 GradGradGradGradGradGradGradGradGradGradGradGradGradGradGradGradGradGrad

 ---------------------------------------------------------------------------------------------------
                            Z-MATRIX (ANGSTROMS AND DEGREES)
   CD    Cent   Atom    N1       Length/X        N2       Alpha/Y        N3        Beta/Z          J
 ---------------------------------------------------------------------------------------------------
      1      1  H 
      2      2  C        1   1.082046(     1)
      3      3  C        2   1.334786(     2)      1  122.453(    12)
      4      4  C        2   1.499872(     3)      1  118.196(    13)      3 -176.221(    22)      0
      5      5  H        3   1.082221(     4)      2  121.114(    14)      1    2.769(    23)      0
      6      6  C        3   1.455964(     5)      2  119.223(    15)      5  175.470(    24)      0
      7      7  O        4   1.447669(     6)      2  112.952(    16)      1 -154.666(    25)      0
      8      8  H        4   1.088989(     7)      2  111.943(    17)      7  118.731(    26)      0
      9      9  H        4   1.104418(     8)      2  110.875(    18)      7 -120.728(    27)      0
     10     10  H        6   1.080390(     9)      3  121.323(    19)      2  176.067(    28)      0
     11     11  C        6   1.339522(    10)      3  118.452(    20)     10  171.767(    29)      0
     12     12  H       11   1.083190(    11)      6  124.208(    21)      3 -169.241(    30)      0
 ---------------------------------------------------------------------------------------------------
                         Z-Matrix orientation:                         
 ---------------------------------------------------------------------
 Center     Atomic      Atomic             Coordinates (Angstroms)
 Number     Number       Type             X           Y           Z
 ---------------------------------------------------------------------
      1          1           0        0.000000    0.000000    0.000000
      2          6           0        0.000000    0.000000    1.082046
      3          6           0        1.126338    0.000000    1.798297
      4          6           0       -1.319021   -0.087123    1.790714
      5          1           0        2.094837    0.044758    1.317454
      6          6           0        1.044636    0.039053    3.251442
      7          8           0       -1.285037    0.486781    3.119331
      8          1           0       -2.101541    0.455279    1.262171
      9          1           0       -1.643130   -1.138123    1.891171
     10          1           0        1.931247   -0.022970    3.865703
     11          6           0       -0.136393    0.321533    3.816856
     12          1           0       -0.271145    0.539103    4.869379
 ---------------------------------------------------------------------
                    Distance matrix (angstroms):
                    1          2          3          4          5
     1  H    0.000000
     2  C    1.082046   0.000000
     3  C    2.121912   1.334786   0.000000
     4  C    2.225772   1.499872   2.446922   0.000000
     5  H    2.475082   2.108498   1.082221   3.449027   0.000000
     6  C    3.415357   2.408126   1.455964   2.781460   2.200742
     7  O    3.408592   2.457398   2.792278   1.447669   3.855606
     8  H    2.493357   2.157823   3.303622   1.088989   4.216773
     9  H    2.751678   2.156359   2.995648   1.104418   3.962418
    10  H    4.321331   3.388066   2.218687   3.856674   2.554393
    11  C    3.832803   2.757022   2.402593   2.381356   3.361845
    12  H    4.906629   3.835107   3.416890   3.311855   4.296327
                    6          7          8          9         10
     6  C    0.000000
     7  O    2.375982   0.000000
     8  H    3.745515   2.028969   0.000000
     9  H    3.234218   2.068071   1.773333   0.000000
    10  H    1.080390   3.340869   4.823949   4.233027   0.000000
    11  C    1.339522   1.353969   3.225851   2.847650   2.096713
    12  H    2.144540   2.023211   4.045903   3.683090   2.484718
                   11         12
    11  C    0.000000
    12  H    1.083190   0.000000
 Symmetry turned off by external request.
 Stoichiometry    C5H6O
 Framework group  C1[X(C5H6O)]
 Deg. of freedom    30
 Full point group                 C1      NOp   1
 Rotational constants (GHZ):           5.5634990           5.3586502           2.8272340
 Standard basis: def2TZVP (5D, 7F)
 The following finite field(s) will be applied:
 An electric field of             -0.0023 -0.0065  0.0072
   222 basis functions,   354 primitive gaussians,   252 cartesian basis functions
    22 alpha electrons       22 beta electrons
       nuclear repulsion energy       223.2034992716 Hartrees.
 NAtoms=   12 NActive=   12 NUniq=   12 SFac= 1.00D+00 NAtFMM=   60 NAOKFM=F Big=F
 Integral buffers will be    131072 words long.
 Raffenetti 2 integral format.
 Two-electron integral symmetry is turned off.
 One-electron integrals computed using PRISM.
   1 Symmetry operations used in ECPInt.
 ECPInt:  NShTT=    4095 NPrTT=   12396 LenC2=    4075 LenP2D=   10416.
 LDataN:  DoStor=T MaxTD1= 6 Len=  172
 NBasis=   222 RedAO= T EigKep=  9.29D-05  NBF=   222
 NBsUse=   222 1.00D-06 EigRej= -1.00D+00 NBFU=   222
 The nuclear repulsion energy is now       224.6501985130 hartrees.
 Initial guess from the checkpoint file:  "checkpoint.chk"
 B after Tr=     0.005700    0.013248   -0.000680
         Rot=    0.999991   -0.003046    0.001524   -0.002386 Ang=  -0.48 deg.
 Keep R1 ints in memory in canonical form, NReq=319363885.
 Requested convergence on RMS density matrix=1.00D-08 within 128 cycles.
 Requested convergence on MAX density matrix=1.00D-06.
 Requested convergence on             energy=1.00D-06.
 No special actions if energy rises.
 SCF Done:  E(RB3LYP) =  -269.425887038     A.U. after    9 cycles
            NFock=  9  Conv=0.34D-08     -V/T= 2.0050
   1 Symmetry operations used in ECPInt.
 ECPInt:  NShTT=    4095 NPrTT=   12396 LenC2=    4075 LenP2D=   10416.
 LDataN:  DoStor=T MaxTD1= 7 Len=  274
 Calling FoFJK, ICntrl=      2127 FMM=F ISym2X=0 I1Cent= 0 IOpClX= 0 NMat=1 NMatS=1 NMatT=0.
 -------------------------------------------------------------------
 Center     Atomic                   Forces (Hartrees/Bohr)
 Number     Number              X              Y              Z
 -------------------------------------------------------------------
      1        1           0.000012809    0.002357280   -0.000014209
      2        6           0.000204385   -0.003322519    0.000206000
      3        6          -0.000115787    0.000917284   -0.000178327
      4        6          -0.000042005    0.000144746   -0.000174552
      5        1           0.000000267   -0.000060105   -0.000001417
      6        6          -0.000042982   -0.000015213    0.000055491
      7        8           0.000136563   -0.000309062    0.000300767
      8        1          -0.000026408    0.000026381   -0.000036065
      9        1          -0.000037291    0.000075540    0.000030765
     10        1           0.000010158   -0.000011705   -0.000030875
     11        6          -0.000139739    0.000196177   -0.000169519
     12        1           0.000040031    0.000001195    0.000011940
 -------------------------------------------------------------------
 Cartesian Forces:  Max     0.003322519 RMS     0.000705811
 -----------------------------------------------------------------------------------------------
                       Internal Coordinate Forces (Hartree/Bohr or radian)
  Cent   Atom   N1       Length/X         N2         Alpha/Y        N3         Beta/Z          J
 -----------------------------------------------------------------------------------------------
      1  H 
      2  C        1   0.000014(     1)
      3  C        2  -0.000377(     2)      1   0.000364(    12)
      4  C        2   0.000034(     3)      1   0.000579(    13)      3  -0.000140(    22)     0
      5  H        3  -0.000002(     4)      2   0.000001(    14)      1  -0.000976(    23)     0
      6  C        3  -0.000121(     5)      2  -0.000697(    15)      5  -0.000871(    24)     0
      7  O        4   0.000157(     6)      2  -0.000063(    16)      1  -0.001053(    25)     0
      8  H        4   0.000050(     7)      2  -0.000031(    17)      7   0.000005(    26)     0
      9  H        4  -0.000058(     8)      2   0.000142(    18)      7   0.000009(    27)     0
     10  H        6  -0.000009(     9)      3  -0.000065(    19)      2  -0.000415(    28)     0
     11  C        6   0.000063(    10)      3  -0.000427(    20)     10  -0.000397(    29)     0
     12  H       11   0.000007(    11)      6  -0.000084(    21)      3   0.000008(    30)     0
 -----------------------------------------------------------------------------------------------
 Internal  Forces:  Max     0.001053342 RMS     0.000388807

 GradGradGradGradGradGradGradGradGradGradGradGradGradGradGradGradGradGrad
 Berny optimization.
 Search for a local minimum.
 Step number   4 out of a maximum of   40
 All quantities printed in internal units (Hartrees-Bohrs-Radians)
 Update second derivatives using D2CorN and points    2    1    3    4
 DE= -7.12D-06 DEPred=-4.68D-06 R= 1.52D+00
 TightC=F SS=  1.41D+00  RLast= 1.62D-02 DXNew= 1.6818D-01 4.8657D-02
 Trust test= 1.52D+00 RLast= 1.62D-02 DXMaxT set to 1.00D-01
 ITU=  1  1  0  0
     Eigenvalues ---    0.00860   0.02655   0.05754   0.06959   0.07432
     Eigenvalues ---    0.08992   0.12892   0.16931   0.19706   0.21554
     Eigenvalues ---    0.23461   0.24758   0.28281   0.33300   0.33600
     Eigenvalues ---    0.34926   0.35655   0.35708   0.35753   0.35971
     Eigenvalues ---    0.37056   0.37873   0.39266   0.51206   0.52467
     Eigenvalues ---    0.57036   0.59718   2.40914   3.24201  40.48716
 RFO step:  Lambda=-8.25765639D-06 EMin= 8.60330305D-03
 Quartic linear search produced a step of  0.44116.
 Variable       Old X    -DE/DX   Delta X   Delta X   Delta X     New X
                                 (Linear)    (Quad)   (Total)
    R2        2.04477   0.00001   0.00005   0.00006   0.00012   2.04489
    R3        2.52238  -0.00038   0.00004  -0.00082  -0.00078   2.52160
    R4        2.83435   0.00003  -0.00033   0.00079   0.00046   2.83481
    R5        2.04510  -0.00000  -0.00005  -0.00000  -0.00005   2.04505
    R6        2.75137  -0.00012   0.00033  -0.00067  -0.00034   2.75103
    R7        2.73570   0.00016   0.00017   0.00108   0.00125   2.73695
    R8        2.05789   0.00005   0.00006   0.00027   0.00033   2.05822
    R9        2.08705  -0.00006   0.00004  -0.00024  -0.00020   2.08684
   R10        2.04164  -0.00001   0.00002  -0.00003  -0.00001   2.04163
   R11        2.53133   0.00006  -0.00027  -0.00029  -0.00056   2.53077
   R12        2.04693   0.00001  -0.00006   0.00011   0.00006   2.04699
    A3        2.13720   0.00036   0.00112  -0.00485  -0.00373   2.13347
    A4        2.06291   0.00058  -0.00209   0.00277   0.00069   2.06359
    A5        2.11384   0.00000   0.00001  -0.00041  -0.00041   2.11343
    A6        2.08084  -0.00070  -0.00019   0.00073   0.00054   2.08138
    A7        1.97138  -0.00006   0.00056   0.00120   0.00176   1.97314
    A8        1.95377  -0.00003  -0.00059   0.00025  -0.00034   1.95342
    A9        1.93514   0.00014   0.00001   0.00003   0.00004   1.93518
   A10        2.11749  -0.00007   0.00012  -0.00112  -0.00100   2.11648
   A11        2.06737  -0.00043   0.00025   0.00056   0.00081   2.06818
   A12        2.16783  -0.00008   0.00034  -0.00166  -0.00131   2.16652
    D4       -3.07564  -0.00014   0.00248   0.00152   0.00401  -3.07163
    D5        0.04833  -0.00098   0.00201   0.00303   0.00504   0.05337
    D6        3.06253  -0.00087  -0.00027   0.00203   0.00176   3.06428
    D7       -2.69942  -0.00105  -0.00527  -0.01321  -0.01849  -2.71791
    D8        2.07224   0.00001   0.00005   0.00121   0.00126   2.07350
    D9       -2.10710   0.00001  -0.00075   0.00050  -0.00025  -2.10735
   D10        3.07295  -0.00041   0.00228   0.00150   0.00378   3.07673
   D11        2.99790  -0.00040   0.00045   0.00204   0.00248   3.00038
   D12       -2.95381   0.00001  -0.00056  -0.00384  -0.00440  -2.95822
         Item               Value     Threshold  Converged?
 Maximum Force            0.001053     0.000450     NO 
 RMS     Force            0.000389     0.000300     NO 
 Maximum Displacement     0.018486     0.001800     NO 
 RMS     Displacement     0.003882     0.001200     NO 
 Predicted change in Energy=-3.949116D-06
 GradGradGradGradGradGradGradGradGradGradGradGradGradGradGradGradGradGrad

 ---------------------------------------------------------------------------------------------------
                            Z-MATRIX (ANGSTROMS AND DEGREES)
   CD    Cent   Atom    N1       Length/X        N2       Alpha/Y        N3        Beta/Z          J
 ---------------------------------------------------------------------------------------------------
      1      1  H 
      2      2  C        1   1.082109(     1)
      3      3  C        2   1.334372(     2)      1  122.239(    12)
      4      4  C        2   1.500114(     3)      1  118.235(    13)      3 -175.991(    22)      0
      5      5  H        3   1.082193(     4)      2  121.091(    14)      1    3.058(    23)      0
      6      6  C        3   1.455785(     5)      2  119.254(    15)      5  175.571(    24)      0
      7      7  O        4   1.448332(     6)      2  113.053(    16)      1 -155.725(    25)      0
      8      8  H        4   1.089161(     7)      2  111.923(    17)      7  118.803(    26)      0
      9      9  H        4   1.104310(     8)      2  110.878(    18)      7 -120.742(    27)      0
     10     10  H        6   1.080385(     9)      3  121.266(    19)      2  176.284(    28)      0
     11     11  C        6   1.339224(    10)      3  118.498(    20)     10  171.909(    29)      0
     12     12  H       11   1.083220(    11)      6  124.132(    21)      3 -169.493(    30)      0
 ---------------------------------------------------------------------------------------------------
                         Z-Matrix orientation:                         
 ---------------------------------------------------------------------
 Center     Atomic      Atomic             Coordinates (Angstroms)
 Number     Number       Type             X           Y           Z
 ---------------------------------------------------------------------
      1          1           0        0.000000    0.000000    0.000000
      2          6           0        0.000000    0.000000    1.082109
      3          6           0        1.128651    0.000000    1.793934
      4          6           0       -1.318389   -0.092388    1.791797
      5          1           0        2.094999    0.049435    1.309303
      6          6           0        1.053037    0.030403    3.247436
      7          8           0       -1.281796    0.459409    3.130396
      8          1           0       -2.099418    0.461346    1.272524
      9          1           0       -1.647437   -1.143200    1.875596
     10          1           0        1.943368   -0.028509    3.856593
     11          6           0       -0.127480    0.297986    3.820411
     12          1           0       -0.257997    0.504350    4.875753
 ---------------------------------------------------------------------
                    Distance matrix (angstroms):
                    1          2          3          4          5
     1  H    0.000000
     2  C    1.082109   0.000000
     3  C    2.119446   1.334372   0.000000
     4  C    2.226482   1.500114   2.448784   0.000000
     5  H    2.470980   2.107862   1.082193   3.450237   0.000000
     6  C    3.414038   2.407998   1.455785   2.785252   2.200547
     7  O    3.413713   2.459581   2.794180   1.448332   3.858394
     8  H    2.497942   2.157928   3.302293   1.089161   4.214755
     9  H    2.745690   2.156519   3.003371   1.104310   3.968487
    10  H    4.318657   3.387515   2.217913   3.860897   2.552989
    11  C    3.834135   2.757417   2.402763   2.384519   3.362566
    12  H    4.908553   3.835709   3.416836   3.315315   4.296871
                    6          7          8          9         10
     6  C    0.000000
     7  O    2.376803   0.000000
     8  H    3.744858   2.029827   0.000000
     9  H    3.248361   2.067988   1.772724   0.000000
    10  H    1.080385   3.341723   4.823017   4.249796   0.000000
    11  C    1.339224   1.354483   3.225982   2.858250   2.096740
    12  H    2.143560   2.023970   4.046720   3.694036   2.483673
                   11         12
    11  C    0.000000
    12  H    1.083220   0.000000
 Symmetry turned off by external request.
 Stoichiometry    C5H6O
 Framework group  C1[X(C5H6O)]
 Deg. of freedom    30
 Full point group                 C1      NOp   1
 Rotational constants (GHZ):           5.5594554           5.3564207           2.8226197
 Standard basis: def2TZVP (5D, 7F)
 The following finite field(s) will be applied:
 An electric field of             -0.0023 -0.0065  0.0072
   222 basis functions,   354 primitive gaussians,   252 cartesian basis functions
    22 alpha electrons       22 beta electrons
       nuclear repulsion energy       223.1340671836 Hartrees.
 NAtoms=   12 NActive=   12 NUniq=   12 SFac= 1.00D+00 NAtFMM=   60 NAOKFM=F Big=F
 Integral buffers will be    131072 words long.
 Raffenetti 2 integral format.
 Two-electron integral symmetry is turned off.
 One-electron integrals computed using PRISM.
   1 Symmetry operations used in ECPInt.
 ECPInt:  NShTT=    4095 NPrTT=   12396 LenC2=    4075 LenP2D=   10414.
 LDataN:  DoStor=T MaxTD1= 6 Len=  172
 NBasis=   222 RedAO= T EigKep=  9.26D-05  NBF=   222
 NBsUse=   222 1.00D-06 EigRej= -1.00D+00 NBFU=   222
 The nuclear repulsion energy is now       224.5865734283 hartrees.
 Initial guess from the checkpoint file:  "checkpoint.chk"
 B after Tr=    -0.008507    0.023852   -0.000681
         Rot=    0.999985   -0.004645   -0.001793   -0.002124 Ang=  -0.62 deg.
 Keep R1 ints in memory in canonical form, NReq=319363885.
 Requested convergence on RMS density matrix=1.00D-08 within 128 cycles.
 Requested convergence on MAX density matrix=1.00D-06.
 Requested convergence on             energy=1.00D-06.
 No special actions if energy rises.
 SCF Done:  E(RB3LYP) =  -269.425890519     A.U. after    9 cycles
            NFock=  9  Conv=0.58D-08     -V/T= 2.0050
   1 Symmetry operations used in ECPInt.
 ECPInt:  NShTT=    4095 NPrTT=   12396 LenC2=    4075 LenP2D=   10414.
 LDataN:  DoStor=T MaxTD1= 7 Len=  274
 Calling FoFJK, ICntrl=      2127 FMM=F ISym2X=0 I1Cent= 0 IOpClX= 0 NMat=1 NMatS=1 NMatT=0.
 -------------------------------------------------------------------
 Center     Atomic                   Forces (Hartrees/Bohr)
 Number     Number              X              Y              Z
 -------------------------------------------------------------------
      1        1          -0.000350234    0.002534646   -0.000013518
      2        6           0.000165917   -0.003469906   -0.000006583
      3        6           0.000024865    0.000960423    0.000022967
      4        6           0.000059218   -0.000032379   -0.000064065
      5        1          -0.000000752   -0.000135460   -0.000022411
      6        6           0.000066683    0.000074776    0.000119943
      7        8           0.000445068   -0.000169103    0.000314061
      8        1           0.000021798    0.000038935   -0.000021412
      9        1          -0.000006061    0.000060153   -0.000045078
     10        1          -0.000040691   -0.000036956    0.000047437
     11        6          -0.000248182    0.000185671   -0.000287946
     12        1          -0.000137629   -0.000010799   -0.000043396
 -------------------------------------------------------------------
 Cartesian Forces:  Max     0.003469906 RMS     0.000747760
 -----------------------------------------------------------------------------------------------
                       Internal Coordinate Forces (Hartree/Bohr or radian)
  Cent   Atom   N1       Length/X         N2         Alpha/Y        N3         Beta/Z          J
 -----------------------------------------------------------------------------------------------
      1  H 
      2  C        1   0.000014(     1)
      3  C        2  -0.000371(     2)      1   0.002642(    12)
      4  C        2  -0.000364(     3)      1   0.002105(    13)      3  -0.000260(    22)     0
      5  H        3   0.000003(     4)      2  -0.000034(    14)      1  -0.001122(    23)     0
      6  C        3  -0.000141(     5)      2  -0.002587(    15)      5  -0.000883(    24)     0
      7  O        4   0.000237(     6)      2  -0.000967(    16)      1  -0.001097(    25)     0
      8  H        4   0.000014(     7)      2  -0.000082(    17)      7  -0.000049(    26)     0
      9  H        4  -0.000059(     8)      2   0.000003(    18)      7  -0.000092(    27)     0
     10  H        6  -0.000005(     9)      3   0.000122(    19)      2  -0.000221(    28)     0
     11  C        6   0.000233(    10)      3  -0.001483(    20)     10  -0.000150(    29)     0
     12  H       11  -0.000028(    11)      6   0.000287(    21)      3  -0.000037(    30)     0
 -----------------------------------------------------------------------------------------------
 Internal  Forces:  Max     0.002641947 RMS     0.000915422

 GradGradGradGradGradGradGradGradGradGradGradGradGradGradGradGradGradGrad
 Berny optimization.
 Search for a local minimum.
 Step number   5 out of a maximum of   40
 All quantities printed in internal units (Hartrees-Bohrs-Radians)
 Update second derivatives using D2CorN and points    2    1    3    4    5

 DE= -3.48D-06 DEPred=-3.95D-06 R= 8.82D-01
 TightC=F SS=  1.41D+00  RLast= 2.13D-02 DXNew= 1.6818D-01 6.3795D-02
 Trust test= 8.82D-01 RLast= 2.13D-02 DXMaxT set to 1.00D-01
 ITU=  1  1  1  0  0
     Eigenvalues ---    0.01099   0.02560   0.05629   0.06717   0.07259
     Eigenvalues ---    0.09297   0.11468   0.16238   0.19425   0.21317
     Eigenvalues ---    0.23465   0.24781   0.28236   0.33314   0.33591
     Eigenvalues ---    0.34925   0.35659   0.35708   0.35752   0.35971
     Eigenvalues ---    0.37055   0.37838   0.39261   0.51161   0.52433
     Eigenvalues ---    0.57035   0.59721   2.40601   3.23423  40.48947
 RFO step:  Lambda=-4.10825138D-06 EMin= 1.09930080D-02
 Quartic linear search produced a step of -0.17397.
 Variable       Old X    -DE/DX   Delta X   Delta X   Delta X     New X
                                 (Linear)    (Quad)   (Total)
    R2        2.04489   0.00001  -0.00002   0.00007   0.00005   2.04494
    R3        2.52160  -0.00037   0.00014   0.00012   0.00026   2.52186
    R4        2.83481  -0.00036  -0.00008  -0.00049  -0.00057   2.83423
    R5        2.04505   0.00000   0.00001  -0.00002  -0.00002   2.04503
    R6        2.75103  -0.00014   0.00006   0.00056   0.00061   2.75165
    R7        2.73695   0.00024  -0.00022   0.00021  -0.00001   2.73695
    R8        2.05822   0.00001  -0.00006   0.00014   0.00008   2.05830
    R9        2.08684  -0.00006   0.00004  -0.00020  -0.00016   2.08668
   R10        2.04163  -0.00000   0.00000  -0.00000  -0.00000   2.04163
   R11        2.53077   0.00023   0.00010  -0.00016  -0.00007   2.53070
   R12        2.04699  -0.00003  -0.00001  -0.00007  -0.00008   2.04691
    A3        2.13347   0.00264   0.00065   0.00188   0.00253   2.13601
    A4        2.06359   0.00210  -0.00012  -0.00271  -0.00283   2.06076
    A5        2.11343  -0.00003   0.00007  -0.00018  -0.00011   2.11332
    A6        2.08138  -0.00259  -0.00009   0.00005  -0.00004   2.08134
    A7        1.97314  -0.00097  -0.00031   0.00073   0.00043   1.97357
    A8        1.95342  -0.00008   0.00006  -0.00099  -0.00093   1.95249
    A9        1.93518   0.00000  -0.00001   0.00027   0.00026   1.93544
   A10        2.11648   0.00012   0.00017   0.00043   0.00060   2.11709
   A11        2.06818  -0.00148  -0.00014  -0.00005  -0.00019   2.06799
   A12        2.16652   0.00029   0.00023   0.00082   0.00105   2.16757
    D4       -3.07163  -0.00026  -0.00070  -0.00185  -0.00254  -3.07417
    D5        0.05337  -0.00112  -0.00088  -0.00201  -0.00289   0.05048
    D6        3.06428  -0.00088  -0.00031  -0.00034  -0.00064   3.06364
    D7       -2.71791  -0.00110   0.00322  -0.00271   0.00050  -2.71741
    D8        2.07350  -0.00005  -0.00022  -0.00026  -0.00047   2.07302
    D9       -2.10735  -0.00009   0.00004  -0.00125  -0.00121  -2.10856
   D10        3.07673  -0.00022  -0.00066   0.00418   0.00352   3.08025
   D11        3.00038  -0.00015  -0.00043  -0.00108  -0.00151   2.99887
   D12       -2.95822  -0.00004   0.00077  -0.00028   0.00049  -2.95773
         Item               Value     Threshold  Converged?
[...]
 Update second derivatives using D2CorN and points    2    1    3    4    5
                                                          6    7    8    9
 DE= -1.73D-07 DEPred=-1.21D-07 R= 1.43D+00
 Trust test= 1.43D+00 RLast= 2.74D-03 DXMaxT set to 1.00D-01
 ITU=  0  0  1  1  1  1  1  0  0
     Eigenvalues ---    0.01075   0.02215   0.04432   0.06083   0.07399
     Eigenvalues ---    0.10160   0.11545   0.15967   0.19151   0.21276
     Eigenvalues ---    0.23471   0.24968   0.28493   0.33303   0.33602
     Eigenvalues ---    0.34923   0.35672   0.35707   0.35754   0.35970
     Eigenvalues ---    0.37055   0.37863   0.39264   0.51023   0.52408
     Eigenvalues ---    0.57031   0.59876   2.40142   3.21529  40.47828
 RFO step:  Lambda=-5.81051793D-08 EMin= 1.07544982D-02
 Quartic linear search produced a step of  0.47016.
 Variable       Old X    -DE/DX   Delta X   Delta X   Delta X     New X
                                 (Linear)    (Quad)   (Total)
    R2        2.04497   0.00000   0.00000   0.00001   0.00001   2.04498
    R3        2.52154  -0.00006  -0.00005   0.00007   0.00001   2.52156
    R4        2.83444  -0.00003   0.00002  -0.00004  -0.00002   2.83442
    R5        2.04505  -0.00000  -0.00000  -0.00000  -0.00000   2.04505
    R6        2.75155  -0.00003  -0.00001   0.00004   0.00003   2.75158
    R7        2.73744   0.00002   0.00003  -0.00005  -0.00001   2.73743
    R8        2.05845   0.00000   0.00001  -0.00001   0.00000   2.05845
    R9        2.08646  -0.00000  -0.00001   0.00000  -0.00000   2.08646
   R10        2.04155  -0.00000  -0.00001   0.00001  -0.00000   2.04155
   R11        2.53062   0.00003  -0.00002  -0.00001  -0.00002   2.53060
   R12        2.04697  -0.00000   0.00001  -0.00001   0.00000   2.04697
    A3        2.13497   0.00029  -0.00015   0.00018   0.00003   2.13500
    A4        2.06069   0.00029   0.00004  -0.00014  -0.00011   2.06058
    A5        2.11297  -0.00000  -0.00004   0.00003  -0.00002   2.11296
    A6        2.08179  -0.00032   0.00003  -0.00004  -0.00001   2.08178
    A7        1.97434  -0.00013   0.00006  -0.00003   0.00002   1.97436
    A8        1.95221   0.00000  -0.00000  -0.00000  -0.00000   1.95220
    A9        1.93570  -0.00000  -0.00001  -0.00003  -0.00004   1.93566
   A10        2.11714   0.00000   0.00000   0.00006   0.00006   2.11720
   A11        2.06778  -0.00017   0.00001  -0.00000   0.00001   2.06778
   A12        2.16704   0.00001  -0.00005   0.00008   0.00003   2.16706
    D4       -3.08070   0.00000  -0.00028   0.00031   0.00003  -3.08066
    D5        0.04451  -0.00009  -0.00037   0.00038   0.00001   0.04451
    D6        3.06709  -0.00011   0.00043  -0.00020   0.00023   3.06733
    D7       -2.72046  -0.00011  -0.00053   0.00006  -0.00047  -2.72094
    D8        2.07352   0.00000   0.00005  -0.00003   0.00002   2.07354
    D9       -2.10863   0.00000   0.00001  -0.00003  -0.00002  -2.10866
   D10        3.07966  -0.00007  -0.00048  -0.00049  -0.00097   3.07869
   D11        3.00009   0.00002   0.00064   0.00053   0.00117   3.00126
   D12       -2.96040   0.00001  -0.00055  -0.00001  -0.00056  -2.96096
         Item               Value     Threshold  Converged?
 Maximum Force            0.000319     0.000450     YES
 RMS     Force            0.000109     0.000300     YES
 Maximum Displacement     0.001171     0.001800     YES
 RMS     Displacement     0.000312     0.001200     YES
 Predicted change in Energy=-4.058072D-08
 Optimization completed.
    -- Stationary point found.
                       ----------------------------
                       !   Optimized Parameters   !
                       ! (Angstroms and Degrees)  !
 ----------------------                            ----------------------
 !      Name          Value   Derivative information (Atomic Units)     !
 ------------------------------------------------------------------------
 !       R2          1.0822   -DE/DX =    0.0                           !
 !       R3          1.3343   -DE/DX =   -0.0001                        !
 !       R4          1.4999   -DE/DX =    0.0                           !
 !       R5          1.0822   -DE/DX =    0.0                           !
 !       R6          1.4561   -DE/DX =    0.0                           !
 !       R7          1.4486   -DE/DX =    0.0                           !
 !       R8          1.0893   -DE/DX =    0.0                           !
 !       R9          1.1041   -DE/DX =    0.0                           !
 !       R10         1.0803   -DE/DX =    0.0                           !
 !       R11         1.3391   -DE/DX =    0.0                           !
 !       R12         1.0832   -DE/DX =    0.0                           !
 !       A3        122.3249   -DE/DX =    0.0003                        !
 !       A4        118.0686   -DE/DX =    0.0003                        !
 !       A5        121.0645   -DE/DX =    0.0                           !
 !       A6        119.2776   -DE/DX =   -0.0003                        !
 !       A7        113.1212   -DE/DX =   -0.0001                        !
 !       A8        111.8531   -DE/DX =    0.0                           !
 !       A9        110.9073   -DE/DX =    0.0                           !
 !       A10       121.3032   -DE/DX =    0.0                           !
 !       A11       118.4748   -DE/DX =   -0.0002                        !
 !       A12       124.162    -DE/DX =    0.0                           !
 !       D4       -176.5108   -DE/DX =    0.0                           !
 !       D5          2.55     -DE/DX =   -0.0001                        !
 !       D6        175.7316   -DE/DX =   -0.0001                        !
 !       D7       -155.8711   -DE/DX =   -0.0001                        !
 !       D8        118.8037   -DE/DX =    0.0                           !
 !       D9       -120.8158   -DE/DX =    0.0                           !
 !       D10       176.4514   -DE/DX =   -0.0001                        !
 !       D11       171.8922   -DE/DX =    0.0                           !
 !       D12      -169.6183   -DE/DX =    0.0                           !
 ------------------------------------------------------------------------
 GradGradGradGradGradGradGradGradGradGradGradGradGradGradGradGradGradGrad

 ---------------------------------------------------------------------------------------------------
                            Z-MATRIX (ANGSTROMS AND DEGREES)
   CD    Cent   Atom    N1       Length/X        N2       Alpha/Y        N3        Beta/Z          J
 ---------------------------------------------------------------------------------------------------
      1      1  H 
      2      2  C        1   1.082150(     1)
      3      3  C        2   1.334343(     2)      1  122.325(    12)
      4      4  C        2   1.499920(     3)      1  118.069(    13)      3 -176.511(    22)      0
      5      5  H        3   1.082193(     4)      2  121.064(    14)      1    2.550(    23)      0
      6      6  C        3   1.456057(     5)      2  119.278(    15)      5  175.732(    24)      0
      7      7  O        4   1.448591(     6)      2  113.121(    16)      1 -155.871(    25)      0
      8      8  H        4   1.089285(     7)      2  111.853(    17)      7  118.804(    26)      0
      9      9  H        4   1.104108(     8)      2  110.907(    18)      7 -120.816(    27)      0
     10     10  H        6   1.080344(     9)      3  121.303(    19)      2  176.451(    28)      0
     11     11  C        6   1.339147(    10)      3  118.475(    20)     10  171.892(    29)      0
     12     12  H       11   1.083207(    11)      6  124.162(    21)      3 -169.618(    30)      0
 ---------------------------------------------------------------------------------------------------
                         Z-Matrix orientation:                         
 ---------------------------------------------------------------------
 Center     Atomic      Atomic             Coordinates (Angstroms)
 Number     Number       Type             X           Y           Z
 ---------------------------------------------------------------------
      1          1           0        0.000000    0.000000    0.000000
      2          6           0        0.000000    0.000000    1.082150
      3          6           0        1.127560    0.000000    1.795649
      4          6           0       -1.321054   -0.080549    1.787906
      5          1           0        2.094626    0.041242    1.311683
      6          6           0        1.050461    0.038088    3.249165
      7          8           0       -1.284170    0.467316    3.128390
      8          1           0       -2.094130    0.482837    1.266857
      9          1           0       -1.662139   -1.127644    1.867322
     10          1           0        1.939720   -0.017850    3.860092
     11          6           0       -0.130637    0.309422    3.818990
     12          1           0       -0.263347    0.519650    4.873282
 ---------------------------------------------------------------------
                    Distance matrix (angstroms):
                    1          2          3          4          5
     1  H    0.000000
     2  C    1.082150   0.000000
     3  C    2.120318   1.334343   0.000000
     4  C    2.224473   1.499920   2.449950   0.000000
     5  H    2.471775   2.107568   1.082193   3.450868   0.000000
     6  C    3.414966   2.408500   1.456057   2.788088   2.200938
     7  O    3.413840   2.460604   2.794820   1.448591   3.859822
     8  H    2.494682   2.156995   3.300308   1.089285   4.212207
     9  H    2.742477   2.156567   3.009840   1.104108   3.973451
    10  H    4.320086   3.388184   2.218524   3.864005   2.553797
    11  C    3.833731   2.757372   2.402647   2.386310   3.363080
    12  H    4.907980   3.835631   3.417087   3.316402   4.298127
                    6          7          8          9         10
     6  C    0.000000
     7  O    2.376830   0.000000
     8  H    3.743768   2.030168   0.000000
     9  H    3.259849   2.068103   1.772237   0.000000
    10  H    1.080344   3.341293   4.821566   4.263351   0.000000
    11  C    1.339147   1.353697   3.224711   2.866996   2.096467
    12  H    2.143770   2.022242   4.044678   3.702160   2.483740
                   11         12
    11  C    0.000000
    12  H    1.083207   0.000000
 Symmetry turned off by external request.
 Stoichiometry    C5H6O
 Framework group  C1[X(C5H6O)]
 Deg. of freedom    30
 Full point group                 C1      NOp   1
 Rotational constants (GHZ):           5.5560557           5.3574428           2.8200220

 **********************************************************************

            Population analysis using the SCF density.

 **********************************************************************

 Alpha  occ. eigenvalues --  -19.19675 -10.26816 -10.26654 -10.20409 -10.20296
 Alpha  occ. eigenvalues --  -10.20028  -1.10456  -0.84378  -0.80974  -0.69837
 Alpha  occ. eigenvalues --   -0.66017  -0.56668  -0.53914  -0.51952  -0.49871
 Alpha  occ. eigenvalues --   -0.46838  -0.44090  -0.40992  -0.39565  -0.36233
 Alpha  occ. eigenvalues --   -0.33646  -0.24106
 Alpha virt. eigenvalues --   -0.06443   0.00667   0.01456   0.04232   0.04587
 Alpha virt. eigenvalues --    0.05472   0.07015   0.08395   0.10759   0.12770
 Alpha virt. eigenvalues --    0.13974   0.15742   0.17610   0.18771   0.20098
 Alpha virt. eigenvalues --    0.21651   0.23087   0.23876   0.24832   0.26450
 Alpha virt. eigenvalues --    0.27459   0.30480   0.31702   0.33001   0.33600
 Alpha virt. eigenvalues --    0.34819   0.36398   0.37068   0.38313   0.40733
 Alpha virt. eigenvalues --    0.41145   0.42216   0.43274   0.46586   0.48337
 Alpha virt. eigenvalues --    0.49739   0.52826   0.55274   0.56522   0.59682
 Alpha virt. eigenvalues --    0.62130   0.63161   0.65985   0.68971   0.69764
 Alpha virt. eigenvalues --    0.73746   0.76984   0.81476   0.81800   0.84063
 Alpha virt. eigenvalues --    0.88219   0.89899   0.92164   0.93427   0.96305
 Alpha virt. eigenvalues --    1.02692   1.04171   1.06096   1.08025   1.09766
 Alpha virt. eigenvalues --    1.12546   1.15040   1.16220   1.20845   1.23712
 Alpha virt. eigenvalues --    1.27213   1.29817   1.33030   1.37249   1.40173
 Alpha virt. eigenvalues --    1.41965   1.42532   1.46176   1.47828   1.50297
 Alpha virt. eigenvalues --    1.52725   1.56238   1.59247   1.62059   1.64920
 Alpha virt. eigenvalues --    1.66742   1.69688   1.72176   1.73680   1.75807
 Alpha virt. eigenvalues --    1.81750   1.84118   1.87066   1.88453   1.93890
 Alpha virt. eigenvalues --    1.96834   1.97601   2.03228   2.07244   2.09167
 Alpha virt. eigenvalues --    2.11591   2.16027   2.18878   2.19499   2.22862
 Alpha virt. eigenvalues --    2.25267   2.32720   2.35702   2.41712   2.42482
 Alpha virt. eigenvalues --    2.47155   2.48458   2.50040   2.54091   2.56734
 Alpha virt. eigenvalues --    2.56881   2.58669   2.63175   2.65852   2.67456
 Alpha virt. eigenvalues --    2.67977   2.71135   2.73046   2.76472   2.77552
 Alpha virt. eigenvalues --    2.79422   2.80883   2.84068   2.85524   2.87719
 Alpha virt. eigenvalues --    2.91545   2.96030   2.98773   3.00139   3.04652
 Alpha virt. eigenvalues --    3.05482   3.07880   3.10012   3.10326   3.12869
 Alpha virt. eigenvalues --    3.15419   3.16223   3.18533   3.20330   3.23473
 Alpha virt. eigenvalues --    3.24414   3.26341   3.29005   3.32374   3.32733
 Alpha virt. eigenvalues --    3.37294   3.38627   3.41589   3.42976   3.45120
 Alpha virt. eigenvalues --    3.51290   3.54684   3.58834   3.65391   3.66419
 Alpha virt. eigenvalues --    3.74761   3.80549   3.83461   3.87967   3.89739
 Alpha virt. eigenvalues --    3.93760   3.99276   4.01917   4.08314   4.15840
 Alpha virt. eigenvalues --    4.18109   4.22662   4.24200   4.32736   4.36867
 Alpha virt. eigenvalues --    4.42573   4.48027   4.57603   4.58730   4.62606
 Alpha virt. eigenvalues --    4.63879   4.77907   4.82452   4.89532   4.92160
 Alpha virt. eigenvalues --    5.09351   5.15644   5.31403   5.41688   5.70841
 Alpha virt. eigenvalues --    5.82123   5.86945   6.20076   6.29876   6.60802
 Alpha virt. eigenvalues --    6.73193   6.83305   7.11314   7.22452  22.03668
 Alpha virt. eigenvalues --   22.28583  22.39251  22.71778  22.90189  44.01988
          Condensed to atoms (all electrons):
               1          2          3          4          5          6
     1  H    0.503524   0.400753  -0.023742  -0.038079  -0.006488   0.004910
     2  C    0.400753   4.986751   0.662606   0.369885  -0.022147  -0.057558
     3  C   -0.023742   0.662606   4.844564  -0.041318   0.415194   0.360176
     4  C   -0.038079   0.369885  -0.041318   4.699539   0.006848  -0.036902
     5  H   -0.006488  -0.022147   0.415194   0.006848   0.508984  -0.048784
     6  C    0.004910  -0.057558   0.360176  -0.036902  -0.048784   5.110075
     7  O    0.002933  -0.029572  -0.009874   0.279421  -0.000864  -0.072730
     8  H   -0.004192  -0.029911  -0.001287   0.424625  -0.000275   0.005363
     9  H    0.006254  -0.086063  -0.005361   0.347147  -0.000178  -0.003569
    10  H   -0.000200   0.005652  -0.037300  -0.000094  -0.004248   0.396701
    11  C    0.002185  -0.034857  -0.053714  -0.056340   0.004400   0.581096
    12  H    0.000147  -0.002251   0.007467   0.004844  -0.000273  -0.082986
               7          8          9         10         11         12
     1  H    0.002933  -0.004192   0.006254  -0.000200   0.002185   0.000147
     2  C   -0.029572  -0.029911  -0.086063   0.005652  -0.034857  -0.002251
     3  C   -0.009874  -0.001287  -0.005361  -0.037300  -0.053714   0.007467
     4  C    0.279421   0.424625   0.347147  -0.000094  -0.056340   0.004844
     5  H   -0.000864  -0.000275  -0.000178  -0.004248   0.004400  -0.000273
     6  C   -0.072730   0.005363  -0.003569   0.396701   0.581096  -0.082986
     7  O    7.920916  -0.029314  -0.073122   0.005635   0.330185  -0.043365
     8  H   -0.029314   0.569483  -0.066537   0.000143  -0.003479  -0.000651
     9  H   -0.073122  -0.066537   0.805067  -0.000330   0.038354   0.001880
    10  H    0.005635   0.000143  -0.000330   0.574046  -0.036100  -0.005263
    11  C    0.330185  -0.003479   0.038354  -0.036100   4.775085   0.433681
    12  H   -0.043365  -0.000651   0.001880  -0.005263   0.433681   0.603628
 Mulliken charges:
               1
     1  H    0.151993
     2  C   -0.163288
     3  C   -0.117412
     4  C    0.040423
     5  H    0.147832
     6  C   -0.155792
     7  O   -0.280250
     8  H    0.136032
     9  H    0.036457
    10  H    0.101359
    11  C    0.019503
    12  H    0.083142
 Sum of Mulliken charges =  -0.00000
 Mulliken charges with hydrogens summed into heavy atoms:
               1
     2  C   -0.011294
     3  C    0.030420
     4  C    0.212911
     6  C   -0.054433
     7  O   -0.280250
    11  C    0.102645
 Electronic spatial extent (au):  <R**2>=           1433.3955
 Charge=             -0.0000 electrons
 Dipole moment (field-independent basis, Debye):
    X=              0.6705    Y=              0.3060    Z=             -1.7907  Tot=              1.9364
 Quadrupole moment (field-independent basis, Debye-Ang):
   XX=            -34.3671   YY=            -38.6823   ZZ=            -40.8064
   XY=              0.6583   XZ=              3.7070   YZ=              0.8653
 Traceless Quadrupole moment (field-independent basis, Debye-Ang):
   XX=              3.5848   YY=             -0.7304   ZZ=             -2.8544
   XY=              0.6583   XZ=              3.7070   YZ=              0.8653
 Octapole moment (field-independent basis, Debye-Ang**2):
  XXX=             16.1001  YYY=            -10.6916  ZZZ=           -271.6756  XYY=              1.0208
  XXY=             -3.6031  XXZ=            -90.4513  XZZ=             17.2506  YZZ=              1.7238
  YYZ=            -95.3530  XYZ=              2.5394
 Hexadecapole moment (field-independent basis, Debye-Ang**3):
 XXXX=           -273.4565 YYYY=            -62.6638 ZZZZ=          -1556.8248 XXXY=              5.3727
 XXXZ=             41.1115 YYYX=              6.1196 YYYZ=            -42.3403 ZZZX=             64.2298
 ZZZY=             -9.7227 XXYY=            -60.7825 XXZZ=           -328.4728 YYZZ=           -297.8333
 XXYZ=            -17.7558 YYXZ=              1.3042 ZZXY=              9.4596
 N-N= 2.245587653691D+02 E-N=-1.075473389866D+03  KE= 2.680755653534D+02
 1\1\GINC-BHC0028\FOpt\RB3LYP\def2TZVP\C5H6O1\DHANAWAY\18-Mar-2022\1\\#
  Opt=(Z-matrix, MaxStep=10) B3LYP/Def2TZVP geom=allcheckpoint guess=re
 ad Field=read NoSymm\\int_zmat_initalOpt\\0,1\H\C,1,R2\C,2,R3,1,A3\C,2
 ,R4,1,A4,3,D4,0\H,3,R5,2,A5,1,D5,0\C,3,R6,2,A6,5,D6,0\O,4,R7,2,A7,1,D7
 ,0\H,4,R8,2,A8,7,D8,0\H,4,R9,2,A9,7,D9,0\H,6,R10,3,A10,2,D10,0\C,6,R11
 ,3,A11,10,D11,0\H,11,R12,6,A12,3,D12,0\\R2=1.08215049\R3=1.33434287\R4
 =1.49992043\R5=1.08219287\R6=1.4560574\R7=1.44859056\R8=1.08928504\R9=
 1.1041081\R10=1.0803442\R11=1.33914708\R12=1.08320731\A3=122.32486832\
 A4=118.06860903\A5=121.06445539\A6=119.27757262\A7=113.12121694\A8=111
 .85311933\A9=110.90732523\A10=121.30320156\A11=118.47479827\A12=124.16
 201824\D4=-176.51082419\D5=2.54995239\D6=175.73155888\D7=-155.87112737
 \D8=118.80373588\D9=-120.81578968\D10=176.45138949\D11=171.8922429\D12
 =-169.61830856\\Version=ES64L-G16RevA.03\HF=-269.425895\RMSD=5.601e-09
 \RMSF=6.277e-04\Dipole=0.2637782,0.1203907,-0.7045165\Quadrupole=2.665
 2106,-0.5430307,-2.1221799,0.4894555,2.7560761,0.6433049\PG=C01 [X(C5H
 6O1)]\\@


 IT CANNOT BE MY BEAUTY, FOR I HAVE NONE; AND IT CANNOT BE MY WIT,
 FOR HE HAS NOT ENOUGH TO KNOW THAT I HAVE ANY.
 -- CATHARINE SEDLEY, PUZZLED ABOUT WHY SHE WAS MISTRESS TO JAMES II
 Job cpu time:       0 days  0 hours 41 minutes 36.3 seconds.
 Elapsed time:       0 days  0 hours  4 minutes 25.4 seconds.
 File lengths (MBytes):  RWF=     28 Int=      0 D2E=      0 Chk=     32 Scr=      1
 Normal termination of Gaussian 16 at Fri Mar 18 11:13:14 2022.
