 Entering Gaussian System, Link 0=g16
 Input=ts_zmat_field_N75.gjf
 Output=ts_zmat_field_N75.out
 Initial command:
 /software/gaussian/g16-a03/l1.exe "/local_scratch/11171273/Gau-14344.inp" -scrdir="/local_scratch/11171273/"
 Entering Link 1 = /software/gaussian/g16-a03/l1.exe PID=     14345.
  
 Copyright (c) 1988,1990,1992,1993,1995,1998,2003,2009,2016,
            Gaussian, Inc.  All Rights Reserved.
  
 This is part of the Gaussian(R) 16 program.  It is based on
 the Gaussian(R) 09 system (copyright 2009, Gaussian, Inc.),
 the Gaussian(R) 03 system (copyright 2003, Gaussian, Inc.),
 the Gaussian(R) 98 system (copyright 1998, Gaussian, Inc.),
 the Gaussian(R) 94 system (copyright 1995, Gaussian, Inc.),
 the Gaussian 92(TM) system (copyright 1992, Gaussian, Inc.),
 the Gaussian 90(TM) system (copyright 1990, Gaussian, Inc.),
 the Gaussian 88(TM) system (copyright 1988, Gaussian, Inc.),
 the Gaussian 86(TM) system (copyright 1986, Carnegie Mellon
 University), and the Gaussian 82(TM) system (copyright 1983,
 Carnegie Mellon University). Gaussian is a federally registered
 trademark of Gaussian, Inc.
  
 This software contains proprietary and confidential information,
 including trade secrets, belonging to Gaussian, Inc.
  
 This software is provided under written license and may be
 used, copied, transmitted, or stored only in accord with that
 written license.
  
 The following legend is applicable only to US Government
 contracts under FAR:
  
                    RESTRICTED RIGHTS LEGEND
  
 Use, reproduction and disclosure by the US Government is
 subject to restrictions as set forth in subparagraphs (a)
 and (c) of the Commercial Computer Software - Restricted
 Rights clause in FAR 52.227-19.
  
 Gaussian, Inc.
 340 Quinnipiac St., Bldg. 40, Wallingford CT 06492
  
  
 ---------------------------------------------------------------
 Warning -- This program may not be used in any manner that
 competes with the business of Gaussian, Inc. or will provide
 assistance to any competitor of Gaussian, Inc.  The licensee
 of this program is prohibited from giving any competitor of
 Gaussian, Inc. access to this program.  By using this program,
 the user acknowledges that Gaussian, Inc. is engaged in the
 business of creating and licensing software in the field of
 computational chemistry and represents and warrants to the
 licensee that it is not a competitor of Gaussian, Inc. and that
 it will not use this program in any manner prohibited above.
 ---------------------------------------------------------------
  

 Cite this work as:
 Gaussian 16, Revision A.03,
 M. J. Frisch, G. W. Trucks, H. B. Schlegel, G. E. Scuseria, 
 M. A. Robb, J. R. Cheeseman, G. Scalmani, V. Barone, 
 G. A. Petersson, H. Nakatsuji, X. Li, M. Caricato, A. V. Marenich, 
 J. Bloino, B. G. Janesko, R. Gomperts, B. Mennucci, H. P. Hratchian, 
 J. V. Ortiz, A. F. Izmaylov, J. L. Sonnenberg, D. Williams-Young, 
 F. Ding, F. Lipparini, F. Egidi, J. Goings, B. Peng, A. Petrone, 
 T. Henderson, D. Ranasinghe, V. G. Zakrzewski, J. Gao, N. Rega, 
 G. Zheng, W. Liang, M. Hada, M. Ehara, K. Toyota, R. Fukuda, 
 J. Hasegawa, M. Ishida, T. Nakajima, Y. Honda, O. Kitao, H. Nakai, 
 T. Vreven, K. Throssell, J. A. Montgomery, Jr., J. E. Peralta, 
 F. Ogliaro, M. J. Bearpark, J. J. Heyd, E. N. Brothers, K. N. Kudin, 
 V. N. Staroverov, T. A. Keith, R. Kobayashi, J. Normand, 
 K. Raghavachari, A. P. Rendell, J. C. Burant, S. S. Iyengar, 
 J. Tomasi, M. Cossi, J. M. Millam, M. Klene, C. Adamo, R. Cammi, 
 J. W. Ochterski, R. L. Martin, K. Morokuma, O. Farkas, 
 J. B. Foresman, and D. J. Fox, Gaussian, Inc., Wallingford CT, 2016.
 
 ******************************************
 Gaussian 16:  ES64L-G16RevA.03 25-Dec-2016
                10-Jun-2022 
 ******************************************
 %nprocshared=12
 Will use up to   12 processors via shared memory.
 %chk=checkpoint.chk
 %mem=12GB
 ----------------------------------------------------------------------
 # Opt=(TS, CalcFC, noeigentest, Z-matrix, MaxStep=10) geom=allcheckpoi
 nt guess=read Field=read NoSymm B3LYP/Def2TZVP freq=noraman pop=none
 ----------------------------------------------------------------------
 1/5=1,8=10,10=4,11=1,18=40,26=3,29=7,38=1/1,3;
 2/12=2,15=1,29=3,40=1/2;
 3/5=44,7=101,11=2,14=-6,25=1,30=1,71=2,74=-5,116=-2,140=1/1,2,3;
 4/5=1/1;
 5/5=2,38=6/2;
 8/6=4,10=90,11=11/1;
 11/6=1,8=1,9=11,15=111,16=1,31=1/1,2,10;
 10/6=1,13=1,31=1/2;
 7/10=1,18=20,25=1,30=1/1,2,3,16;
 1/5=1,8=10,10=4,11=1,18=40,26=3/3(2);
 2/15=1,29=3/2;
 99//99;
 2/15=1,29=3/2;
 3/5=44,7=101,11=2,14=-2,25=1,30=1,71=1,74=-5/1,2,3;
 4/5=5,16=3,69=1/1;
 5/5=2,38=5/2;
 7/30=1/1,2,3,16;
 1/5=1,8=10,11=1,18=40,26=3/3(-5);
 2/15=1,29=3/2;
 99/9=1/99;
 Structure from the checkpoint file:  "checkpoint.chk"
 -----------------
 ts_zmat_initalOpt
 -----------------
 Charge =  0 Multiplicity = 1
 Z-Matrix found in chk file.
 C
 C,1,R2
 C,1,R3,2,A3
 H,1,R4,2,A4,3,D4,0
 C,2,R5,1,A5,3,D5,0
 N,3,R6,1,A6,2,D6,0
 H,3,R7,1,A7,6,D7,0
 H,2,R8,1,A8,5,D8,0
 H,3,R9,1,A9,6,D9,0
 H,5,R10,2,A10,1,D10,0
      Variables:
 R2=1.3920801
 R3=1.39850598
 R4=1.07833536
 R5=1.39416524
 R6=1.45743879
 R7=1.07913381
 R8=1.07950088
 R9=1.29284171
 R10=1.08021895
 A3=106.65764983
 A4=127.32120408
 A5=107.5668434
 A6=109.37580981
 A7=129.63306248
 A8=126.18071772
 A9=114.7931752
 A10=127.8263789
 D4=179.84901642
 D5=1.02125734
 D6=1.05511932
 D7=162.31144617
 D8=177.89176985
 D9=-59.14037366
 D10=174.20392578
 Recover connectivity data from disk.

 GradGradGradGradGradGradGradGradGradGradGradGradGradGradGradGradGradGrad
 Berny optimization.
 Initialization pass.
                       ----------------------------
                       !    Initial Parameters    !
                       ! (Angstroms and Degrees)  !
 ----------------------                            ----------------------
 !      Name          Value   Derivative information (Atomic Units)     !
 ------------------------------------------------------------------------
 !       R2          1.3921   calculate D2E/DX2 analytically            !
 !       R3          1.3985   calculate D2E/DX2 analytically            !
 !       R4          1.0783   calculate D2E/DX2 analytically            !
 !       R5          1.3942   calculate D2E/DX2 analytically            !
 !       R6          1.4574   calculate D2E/DX2 analytically            !
 !       R7          1.0791   calculate D2E/DX2 analytically            !
 !       R8          1.0795   calculate D2E/DX2 analytically            !
 !       R9          1.2928   calculate D2E/DX2 analytically            !
 !       R10         1.0802   calculate D2E/DX2 analytically            !
 !       A3        106.6576   calculate D2E/DX2 analytically            !
 !       A4        127.3212   calculate D2E/DX2 analytically            !
 !       A5        107.5668   calculate D2E/DX2 analytically            !
 !       A6        109.3758   calculate D2E/DX2 analytically            !
 !       A7        129.6331   calculate D2E/DX2 analytically            !
 !       A8        126.1807   calculate D2E/DX2 analytically            !
 !       A9        114.7932   calculate D2E/DX2 analytically            !
 !       A10       127.8264   calculate D2E/DX2 analytically            !
 !       D4        179.849    calculate D2E/DX2 analytically            !
 !       D5          1.0213   calculate D2E/DX2 analytically            !
 !       D6          1.0551   calculate D2E/DX2 analytically            !
 !       D7        162.3114   calculate D2E/DX2 analytically            !
 !       D8        177.8918   calculate D2E/DX2 analytically            !
 !       D9        -59.1404   calculate D2E/DX2 analytically            !
 !       D10       174.2039   calculate D2E/DX2 analytically            !
 ------------------------------------------------------------------------
 Trust Radius=1.00D-01 FncErr=1.00D-07 GrdErr=1.00D-06 EigMax=2.50D+02 EigMin=1.00D-04
 Number of steps in this run=     34 maximum allowed number of steps=    100.
 Search for a saddle point of order  1.
 GradGradGradGradGradGradGradGradGradGradGradGradGradGradGradGradGradGrad

 ---------------------------------------------------------------------------------------------------
                            Z-MATRIX (ANGSTROMS AND DEGREES)
   CD    Cent   Atom    N1       Length/X        N2       Alpha/Y        N3        Beta/Z          J
 ---------------------------------------------------------------------------------------------------
      1      1  C 
      2      2  C        1   1.392080(     1)
      3      3  C        1   1.398506(     2)      2  106.658(    10)
      4      4  H        1   1.078335(     3)      2  127.321(    11)      3  179.849(    18)      0
      5      5  C        2   1.394165(     4)      1  107.567(    12)      3    1.021(    19)      0
      6      6  N        3   1.457439(     5)      1  109.376(    13)      2    1.055(    20)      0
      7      7  H        3   1.079134(     6)      1  129.633(    14)      6  162.311(    21)      0
      8      8  H        2   1.079501(     7)      1  126.181(    15)      5  177.892(    22)      0
      9      9  H        3   1.292842(     8)      1  114.793(    16)      6  -59.140(    23)      0
     10     10  H        5   1.080219(     9)      2  127.826(    17)      1  174.204(    24)      0
 ---------------------------------------------------------------------------------------------------
                         Z-Matrix orientation:                         
 ---------------------------------------------------------------------
 Center     Atomic      Atomic             Coordinates (Angstroms)
 Number     Number       Type             X           Y           Z
 ---------------------------------------------------------------------
      1          6           0        0.000000    0.000000    0.000000
      2          6           0        0.000000    0.000000    1.392080
      3          6           0        1.339817    0.000000   -0.400885
      4          1           0       -0.857542   -0.002260   -0.653776
      5          6           0        1.328938    0.023690    1.812865
      6          7           0        2.197100   -0.025318    0.777484
      7          1           0        1.771011   -0.237897   -1.361097
      8          1           0       -0.871172    0.016529    2.029346
      9          1           0        2.037071    0.996259    0.038142
     10          1           0        1.702710    0.116533    2.822096
 ---------------------------------------------------------------------
                    Distance matrix (angstroms):
                    1          2          3          4          5
     1  C    0.000000
     2  C    1.392080   0.000000
     3  C    1.398506   2.238266   0.000000
     4  H    1.078335   2.218313   2.211865   0.000000
     5  C    2.247914   1.394165   2.213903   3.296314   0.000000
     6  N    2.330744   2.281582   1.457439   3.373407   1.352080
     7  H    2.246255   3.282234   1.079134   2.732237   3.215259
     8  H    2.208497   1.079501   3.285540   2.683223   2.210746
     9  H    2.267961   2.641087   1.292842   3.139200   2.144058
    10  H    3.298034   2.226600   3.245439   4.318644   1.080219
                    6          7          8          9         10
     6  N    0.000000
     7  H    2.190952   0.000000
     8  H    3.314092   4.305922   0.000000
     9  H    1.271163   1.884622   3.658230   0.000000
    10  H    2.108312   4.198736   2.695055   2.938727   0.000000
 Symmetry turned off by external request.
 Stoichiometry    C4H5N
 Framework group  C1[X(C4H5N)]
 Deg. of freedom    24
 Full point group                 C1      NOp   1
 Rotational constants (GHZ):           9.2001466           8.8429353           4.5965875
 Standard basis: def2TZVP (5D, 7F)
 The following finite field(s) will be applied:
 An electric field of              0.0059 -0.0014  0.0044
   185 basis functions,   295 primitive gaussians,   210 cartesian basis functions
    18 alpha electrons       18 beta electrons
       nuclear repulsion energy       160.5484804679 Hartrees.
 NAtoms=   10 NActive=   10 NUniq=   10 SFac= 1.00D+00 NAtFMM=   60 NAOKFM=F Big=F
 Integral buffers will be    131072 words long.
 Raffenetti 2 integral format.
 Two-electron integral symmetry is turned off.
 One-electron integrals computed using PRISM.
   1 Symmetry operations used in ECPInt.
 ECPInt:  NShTT=    2850 NPrTT=    8640 LenC2=    2843 LenP2D=    7479.
 LDataN:  DoStor=T MaxTD1= 6 Len=  172
 NBasis=   185 RedAO= T EigKep=  5.70D-05  NBF=   185
 NBsUse=   185 1.00D-06 EigRej= -1.00D+00 NBFU=   185
 The nuclear repulsion energy is now       161.1482748540 hartrees.
 Initial guess from the checkpoint file:  "checkpoint.chk"
 B after Tr=    -0.000000   -0.000000    0.000000
         Rot=    1.000000    0.000000    0.000000   -0.000000 Ang=   0.00 deg.
 Keep R1 ints in memory in canonical form, NReq=160464061.
 Requested convergence on RMS density matrix=1.00D-08 within 128 cycles.
 Requested convergence on MAX density matrix=1.00D-06.
 Requested convergence on             energy=1.00D-06.
 No special actions if energy rises.
 SCF Done:  E(RB3LYP) =  -210.181429782     A.U. after   10 cycles
            NFock= 10  Conv=0.28D-08     -V/T= 2.0052
 DoSCS=F DFT=T ScalE2(SS,OS)=  1.000000  1.000000
 Range of M.O.s used for correlation:     1   185
 NBasis=   185 NAE=    18 NBE=    18 NFC=     0 NFV=     0
 NROrb=    185 NOA=    18 NOB=    18 NVA=   167 NVB=   167

 **** Warning!!: The largest alpha MO coefficient is  0.24541980D+02

   1 Symmetry operations used in ECPInt.
 ECPInt:  NShTT=    2850 NPrTT=    8640 LenC2=    2843 LenP2D=    7479.
 LDataN:  DoStor=T MaxTD1= 7 Len=  274
 Symmetrizing basis deriv contribution to polar:
 IMax=3 JMax=2 DiffMx= 0.00D+00
 G2DrvN: will do    11 centers at a time, making    1 passes.
 Calling FoFCou, ICntrl=  3107 FMM=F I1Cent=   0 AccDes= 0.00D+00.
 End of G2Drv F.D. properties file   721 does not exist.
 End of G2Drv F.D. properties file   722 does not exist.
 End of G2Drv F.D. properties file   788 does not exist.
          IDoAtm=1111111111
          Differentiating once with respect to nuclear coordinates.
 Keep R1 ints in memory in canonical form, NReq=160431867.
          There are    33 degrees of freedom in the 1st order CPHF.  IDoFFX=6 NUNeed=     0.
     27 vectors produced by pass  0 Test12= 9.11D-15 3.03D-09 XBig12= 1.03D-01 1.12D-01.
 AX will form    27 AO Fock derivatives at one time.
     27 vectors produced by pass  1 Test12= 9.11D-15 3.03D-09 XBig12= 2.00D-02 5.38D-02.
     27 vectors produced by pass  2 Test12= 9.11D-15 3.03D-09 XBig12= 2.35D-04 2.32D-03.
     27 vectors produced by pass  3 Test12= 9.11D-15 3.03D-09 XBig12= 1.08D-06 1.36D-04.
     27 vectors produced by pass  4 Test12= 9.11D-15 3.03D-09 XBig12= 3.17D-09 8.55D-06.
     24 vectors produced by pass  5 Test12= 9.11D-15 3.03D-09 XBig12= 5.75D-12 3.98D-07.
      6 vectors produced by pass  6 Test12= 9.11D-15 3.03D-09 XBig12= 1.16D-14 1.51D-08.
 InvSVY:  IOpt=1 It=  1 EMax= 2.22D-15
 Solved reduced A of dimension   165 with    27 vectors.
 End of Minotr F.D. properties file   721 does not exist.
 End of Minotr F.D. properties file   722 does not exist.
 End of Minotr F.D. properties file   788 does not exist.
   1 Symmetry operations used in ECPInt.
 ECPInt:  NShTT=    2850 NPrTT=    8640 LenC2=    2843 LenP2D=    7479.
 LDataN:  DoStor=T MaxTD1= 8 Len=  415
 Calling FoFJK, ICntrl=    100147 FMM=F ISym2X=0 I1Cent= 0 IOpClX= 0 NMat=1 NMatS=1 NMatT=0.
 -------------------------------------------------------------------
 Center     Atomic                   Forces (Hartrees/Bohr)
 Number     Number              X              Y              Z
 -------------------------------------------------------------------
      1        6           0.000237762   -0.000447150   -0.000008228
      2        6          -0.000177644    0.000280151    0.000132130
      3        6          -0.000326552    0.000167607   -0.000000188
      4        1          -0.000023074    0.000087867   -0.000020431
      5        6          -0.000326799   -0.000341879   -0.000326048
      6        7           0.001347199   -0.000215989    0.000704296
      7        1          -0.000166922    0.000114552   -0.000094239
      8        1          -0.000121189    0.000052087   -0.000198624
      9        1          -0.000442442    0.000112109   -0.000422110
     10        1          -0.000000340    0.000190645    0.000233442
 -------------------------------------------------------------------
 Cartesian Forces:  Max     0.001347199 RMS     0.000355861
 -----------------------------------------------------------------------------------------------
                       Internal Coordinate Forces (Hartree/Bohr or radian)
  Cent   Atom   N1       Length/X         N2         Alpha/Y        N3         Beta/Z          J
 -----------------------------------------------------------------------------------------------
      1  C 
      2  C        1  -0.000159(     1)
      3  C        1   0.000340(     2)      2   0.001641(    10)
      4  H        1   0.000031(     3)      2   0.000005(    11)      3   0.000142(    18)     0
      5  C        2  -0.000342(     4)      1   0.000189(    12)      3  -0.000312(    19)     0
      6  N        3   0.001366(     5)      1   0.001856(    13)      2  -0.000387(    20)     0
      7  H        3  -0.000008(     6)      1  -0.000338(    14)      6   0.000234(    21)     0
      8  H        2  -0.000019(     7)      1  -0.000474(    15)      5  -0.000082(    22)     0
      9  H        3  -0.000296(     8)      1  -0.000482(    16)      6  -0.001132(    23)     0
     10  H        5   0.000234(     9)      2  -0.000182(    17)      1  -0.000270(    24)     0
 -----------------------------------------------------------------------------------------------
 Internal  Forces:  Max     0.001855965 RMS     0.000668519

 GradGradGradGradGradGradGradGradGradGradGradGradGradGradGradGradGradGrad
 Berny optimization.
 Search for a saddle point.
 Step number   1 out of a maximum of   34
 All quantities printed in internal units (Hartrees-Bohrs-Radians)
 Swapping is turned off.
 Second derivative matrix not updated -- analytic derivatives used.
 ITU=  0
     Eigenvalues ---   -0.26166   0.03424   0.04806   0.05463   0.06266
     Eigenvalues ---    0.12984   0.17320   0.18565   0.19913   0.21540
     Eigenvalues ---    0.24066   0.25032   0.29196   0.35443   0.36162
     Eigenvalues ---    0.36435   0.36851   0.37064   0.40855   0.47660
     Eigenvalues ---    0.58912   1.53120   2.17551  13.89814
 Eigenvectors required to have negative eigenvalues:
                          D9        R9        A9        D7        R6
   1                    0.75210   0.52991   0.20714   0.16139  -0.15218
                          R3        R2        R5        A6        A10
   1                   -0.14950   0.11768  -0.11689   0.08622   0.04276
 RFO step:  Lambda0=5.449917203D-06 Lambda=-1.56424151D-05.
 Linear search not attempted -- option 19 set.
 Variable       Old X    -DE/DX   Delta X   Delta X   Delta X     New X
                                 (Linear)    (Quad)   (Total)
    R2        2.63065  -0.00016   0.00000   0.00055   0.00055   2.63120
    R3        2.64279   0.00034   0.00000  -0.00175  -0.00175   2.64105
    R4        2.03776   0.00003   0.00000   0.00009   0.00009   2.03785
    R5        2.63459  -0.00034   0.00000  -0.00105  -0.00105   2.63354
    R6        2.75416   0.00137   0.00000   0.00326   0.00326   2.75742
    R7        2.03927  -0.00001   0.00000  -0.00009  -0.00009   2.03918
    R8        2.03996  -0.00002   0.00000  -0.00006  -0.00006   2.03990
    R9        2.44312  -0.00030   0.00000   0.00255   0.00255   2.44567
   R10        2.04132   0.00023   0.00000   0.00067   0.00067   2.04199
    A3        1.86153   0.00164   0.00000   0.00015   0.00015   1.86168
    A4        2.22217   0.00000   0.00000   0.00002   0.00002   2.22220
    A5        1.87740   0.00019   0.00000   0.00011   0.00011   1.87750
    A6        1.90897   0.00186   0.00000   0.00110   0.00110   1.91007
    A7        2.26252  -0.00034   0.00000  -0.00036  -0.00036   2.26217
    A8        2.20227  -0.00047   0.00000  -0.00215  -0.00215   2.20012
    A9        2.00352  -0.00048   0.00000  -0.00323  -0.00323   2.00029
   A10        2.23099  -0.00018   0.00000  -0.00128  -0.00128   2.22971
    D4        3.13896   0.00014   0.00000   0.00125   0.00125   3.14021
    D5        0.01782  -0.00031   0.00000   0.00127   0.00127   0.01909
    D6        0.01842  -0.00039   0.00000  -0.00279  -0.00279   0.01562
    D7        2.83287   0.00023   0.00000   0.01043   0.01043   2.84330
    D8        3.10480  -0.00008   0.00000  -0.00253  -0.00253   3.10227
    D9       -1.03219  -0.00113   0.00000   0.00312   0.00312  -1.02908
   D10        3.04043  -0.00027   0.00000  -0.00529  -0.00529   3.03514
         Item               Value     Threshold  Converged?
 Maximum Force            0.001856     0.000450     NO 
 RMS     Force            0.000669     0.000300     NO 
 Maximum Displacement     0.010435     0.001800     NO 
 RMS     Displacement     0.002916     0.001200     NO 
 Predicted change in Energy=-5.096192D-06
 GradGradGradGradGradGradGradGradGradGradGradGradGradGradGradGradGradGrad

 ---------------------------------------------------------------------------------------------------
                            Z-MATRIX (ANGSTROMS AND DEGREES)
   CD    Cent   Atom    N1       Length/X        N2       Alpha/Y        N3        Beta/Z          J
 ---------------------------------------------------------------------------------------------------
      1      1  C 
      2      2  C        1   1.392373(     1)
      3      3  C        1   1.397582(     2)      2  106.666(    10)
      4      4  H        1   1.078384(     3)      2  127.323(    11)      3  179.921(    18)      0
      5      5  C        2   1.393609(     4)      1  107.573(    12)      3    1.094(    19)      0
      6      6  N        3   1.459164(     5)      1  109.439(    13)      2    0.895(    20)      0
      7      7  H        3   1.079087(     6)      1  129.613(    14)      6  162.909(    21)      0
      8      8  H        2   1.079468(     7)      1  126.058(    15)      5  177.747(    22)      0
      9      9  H        3   1.294194(     8)      1  114.608(    16)      6  -58.962(    23)      0
     10     10  H        5   1.080573(     9)      2  127.753(    17)      1  173.901(    24)      0
 ---------------------------------------------------------------------------------------------------
                         Z-Matrix orientation:                         
 ---------------------------------------------------------------------
 Center     Atomic      Atomic             Coordinates (Angstroms)
 Number     Number       Type             X           Y           Z
 ---------------------------------------------------------------------
      1          6           0        0.000000    0.000000    0.000000
      2          6           0        0.000000    0.000000    1.392373
      3          6           0        1.338872    0.000000   -0.400820
      4          1           0       -0.857567   -0.001188   -0.653826
      5          6           0        1.328331    0.025367    1.813134
      6          7           0        2.198663   -0.021493    0.777932
      7          1           0        1.769036   -0.231865   -1.362915
      8          1           0       -0.872492    0.017653    2.027745
      9          1           0        2.033641    0.998582    0.040844
     10          1           0        1.700750    0.123272    2.822765
 ---------------------------------------------------------------------
                    Distance matrix (angstroms):
                    1          2          3          4          5
     1  C    0.000000
     2  C    1.392373   0.000000
     3  C    1.397582   2.237883   0.000000
     4  H    1.078384   2.218637   2.210963   0.000000
     5  C    2.247790   1.393609   2.214124   3.296171   0.000000
     6  N    2.332330   2.283007   1.459164   3.375039   1.353262
     7  H    2.245169   3.282508   1.079087   2.730396   3.216780
     8  H    2.207556   1.079468   3.284565   2.681678   2.211276
     9  H    2.265950   2.638085   1.294194   3.137067   2.141406
    10  H    3.297841   2.225707   3.246175   4.318236   1.080573
                    6          7          8          9         10
     6  N    0.000000
     7  H    2.193641   0.000000
     8  H    3.315956   4.305404   0.000000
     9  H    1.269285   1.885353   3.654533   0.000000
    10  H    2.109554   4.201274   2.695327   2.935314   0.000000
 Symmetry turned off by external request.
 Stoichiometry    C4H5N
 Framework group  C1[X(C4H5N)]
 Deg. of freedom    24
 Full point group                 C1      NOp   1
 Rotational constants (GHZ):           9.1994579           8.8369530           4.5945866
 Standard basis: def2TZVP (5D, 7F)
 The following finite field(s) will be applied:
 An electric field of              0.0059 -0.0014  0.0044
   185 basis functions,   295 primitive gaussians,   210 cartesian basis functions
    18 alpha electrons       18 beta electrons
       nuclear repulsion energy       160.5192806209 Hartrees.
 NAtoms=   10 NActive=   10 NUniq=   10 SFac= 1.00D+00 NAtFMM=   60 NAOKFM=F Big=F
 Integral buffers will be    131072 words long.
 Raffenetti 2 integral format.
 Two-electron integral symmetry is turned off.
 One-electron integrals computed using PRISM.
   1 Symmetry operations used in ECPInt.
 ECPInt:  NShTT=    2850 NPrTT=    8640 LenC2=    2843 LenP2D=    7479.
 LDataN:  DoStor=T MaxTD1= 6 Len=  172
 NBasis=   185 RedAO= T EigKep=  5.69D-05  NBF=   185
 NBsUse=   185 1.00D-06 EigRej= -1.00D+00 NBFU=   185
 The nuclear repulsion energy is now       161.1189118497 hartrees.
 Initial guess from the checkpoint file:  "checkpoint.chk"
 B after Tr=    -0.000222   -0.000207    0.000255
         Rot=    1.000000    0.000159    0.000032   -0.000712 Ang=   0.08 deg.
 Keep R1 ints in memory in canonical form, NReq=160464061.
 Requested convergence on RMS density matrix=1.00D-08 within 128 cycles.
 Requested convergence on MAX density matrix=1.00D-06.
 Requested convergence on             energy=1.00D-06.
 No special actions if energy rises.
 SCF Done:  E(RB3LYP) =  -210.181434879     A.U. after    9 cycles
            NFock=  9  Conv=0.33D-08     -V/T= 2.0052
   1 Symmetry operations used in ECPInt.
 ECPInt:  NShTT=    2850 NPrTT=    8640 LenC2=    2843 LenP2D=    7479.
 LDataN:  DoStor=T MaxTD1= 7 Len=  274
 Calling FoFJK, ICntrl=      2127 FMM=F ISym2X=0 I1Cent= 0 IOpClX= 0 NMat=1 NMatS=1 NMatT=0.
 -------------------------------------------------------------------
 Center     Atomic                   Forces (Hartrees/Bohr)
 Number     Number              X              Y              Z
 -------------------------------------------------------------------
      1        6           0.000253559   -0.000641127    0.000001292
      2        6          -0.000256338    0.000352452   -0.000000071
      3        6           0.000001514    0.000285812   -0.000007595
      4        1          -0.000000097    0.000000212   -0.000000009
      5        6           0.000003726   -0.000000235   -0.000000802
      6        7          -0.000002950    0.000001815    0.000008946
      7        1          -0.000001724    0.000000939   -0.000001951
      8        1          -0.000000149    0.000000095    0.000000010
      9        1           0.000002474    0.000000575   -0.000000367
     10        1          -0.000000016   -0.000000537    0.000000547
 -------------------------------------------------------------------
 Cartesian Forces:  Max     0.000641127 RMS     0.000157812
 -----------------------------------------------------------------------------------------------
                       Internal Coordinate Forces (Hartree/Bohr or radian)
  Cent   Atom   N1       Length/X         N2         Alpha/Y        N3         Beta/Z          J
 -----------------------------------------------------------------------------------------------
      1  C 
      2  C        1  -0.000000(     1)
      3  C        1  -0.000000(     2)      2  -0.000011(    10)
      4  H        1   0.000000(     3)      2  -0.000000(    11)      3   0.000000(    18)     0
      5  C        2   0.000003(     4)      1  -0.000003(    12)      3  -0.000003(    19)     0
      6  N        3   0.000005(     5)      1  -0.000021(    13)      2  -0.000003(    20)     0
      7  H        3   0.000001(     6)      1  -0.000004(    14)      6   0.000002(    21)     0
      8  H        2   0.000000(     7)      1  -0.000000(    15)      5  -0.000000(    22)     0
      9  H        3   0.000002(     8)      1   0.000005(    16)      6  -0.000000(    23)     0
     10  H        5   0.000000(     9)      2  -0.000000(    17)      1   0.000001(    24)     0
 -----------------------------------------------------------------------------------------------
 Internal  Forces:  Max     0.000021081 RMS     0.000005326

 GradGradGradGradGradGradGradGradGradGradGradGradGradGradGradGradGradGrad
 Berny optimization.
 Search for a saddle point.
 Step number   2 out of a maximum of   34
 All quantities printed in internal units (Hartrees-Bohrs-Radians)
 Swapping is turned off.
 Update second derivatives using D2CorN and points    1    2
 ITU=  0  0
     Eigenvalues ---   -0.26164   0.03427   0.04804   0.05463   0.06267
     Eigenvalues ---    0.12984   0.17321   0.18565   0.19912   0.21538
     Eigenvalues ---    0.24065   0.25031   0.29184   0.35445   0.36162
     Eigenvalues ---    0.36435   0.36851   0.37065   0.40855   0.47660
     Eigenvalues ---    0.58913   1.53119   2.17555  13.89815
 Eigenvectors required to have negative eigenvalues:
                          D9        R9        A9        D7        R6
   1                    0.75211   0.52995   0.20725   0.16136  -0.15207
                          R3        R2        R5        A6        A10
   1                   -0.14943   0.11767  -0.11685   0.08610   0.04276
 RFO step:  Lambda0=3.356037670D-12 Lambda= 0.00000000D+00.
 Linear search not attempted -- option 19 set.
 Variable       Old X    -DE/DX   Delta X   Delta X   Delta X     New X
                                 (Linear)    (Quad)   (Total)
    R2        2.63120  -0.00000   0.00000  -0.00000  -0.00000   2.63120
    R3        2.64105  -0.00000   0.00000   0.00001   0.00001   2.64106
    R4        2.03785   0.00000   0.00000   0.00000   0.00000   2.03785
    R5        2.63354   0.00000   0.00000   0.00000   0.00000   2.63354
    R6        2.75742   0.00001   0.00000   0.00002   0.00002   2.75744
    R7        2.03918   0.00000   0.00000   0.00000   0.00000   2.03918
    R8        2.03990   0.00000   0.00000   0.00000   0.00000   2.03990
    R9        2.44567   0.00000   0.00000   0.00001   0.00001   2.44568
   R10        2.04199   0.00000   0.00000   0.00000   0.00000   2.04199
    A3        1.86168  -0.00001   0.00000   0.00001   0.00001   1.86168
    A4        2.22220  -0.00000   0.00000  -0.00000  -0.00000   2.22219
    A5        1.87750  -0.00000   0.00000   0.00000   0.00000   1.87750
    A6        1.91007  -0.00002   0.00000  -0.00001  -0.00001   1.91006
    A7        2.26217  -0.00000   0.00000  -0.00001  -0.00001   2.26215
    A8        2.20012  -0.00000   0.00000  -0.00000  -0.00000   2.20012
    A9        2.00029   0.00000   0.00000   0.00001   0.00001   2.00030
   A10        2.22971  -0.00000   0.00000  -0.00000  -0.00000   2.22970
    D4        3.14021   0.00000   0.00000   0.00001   0.00001   3.14022
    D5        0.01909  -0.00000   0.00000  -0.00001  -0.00001   0.01909
    D6        0.01562  -0.00000   0.00000   0.00001   0.00001   0.01563
    D7        2.84330   0.00000   0.00000   0.00001   0.00001   2.84331
    D8        3.10227  -0.00000   0.00000   0.00001   0.00001   3.10227
    D9       -1.02908  -0.00000   0.00000   0.00000   0.00000  -1.02907
   D10        3.03514   0.00000   0.00000   0.00002   0.00002   3.03516
         Item               Value     Threshold  Converged?
 Maximum Force            0.000021     0.000450     YES
 RMS     Force            0.000005     0.000300     YES
 Maximum Displacement     0.000022     0.001800     YES
 RMS     Displacement     0.000009     0.001200     YES
 Predicted change in Energy=-2.638357D-10
 Optimization completed.
    -- Stationary point found.
                       ----------------------------
                       !   Optimized Parameters   !
                       ! (Angstroms and Degrees)  !
 ----------------------                            ----------------------
 !      Name          Value   Derivative information (Atomic Units)     !
 ------------------------------------------------------------------------
 !       R2          1.3924   -DE/DX =    0.0                           !
 !       R3          1.3976   -DE/DX =    0.0                           !
 !       R4          1.0784   -DE/DX =    0.0                           !
 !       R5          1.3936   -DE/DX =    0.0                           !
 !       R6          1.4592   -DE/DX =    0.0                           !
 !       R7          1.0791   -DE/DX =    0.0                           !
 !       R8          1.0795   -DE/DX =    0.0                           !
 !       R9          1.2942   -DE/DX =    0.0                           !
 !       R10         1.0806   -DE/DX =    0.0                           !
 !       A3        106.6662   -DE/DX =    0.0                           !
 !       A4        127.3226   -DE/DX =    0.0                           !
 !       A5        107.5731   -DE/DX =    0.0                           !
 !       A6        109.4389   -DE/DX =    0.0                           !
 !       A7        129.6125   -DE/DX =    0.0                           !
 !       A8        126.0575   -DE/DX =    0.0                           !
 !       A9        114.6082   -DE/DX =    0.0                           !
 !       A10       127.7528   -DE/DX =    0.0                           !
 !       D4        179.9207   -DE/DX =    0.0                           !
 !       D5          1.0941   -DE/DX =    0.0                           !
 !       D6          0.895    -DE/DX =    0.0                           !
 !       D7        162.9093   -DE/DX =    0.0                           !
 !       D8        177.7468   -DE/DX =    0.0                           !
 !       D9        -58.9617   -DE/DX =    0.0                           !
 !       D10       173.9009   -DE/DX =    0.0                           !
 ------------------------------------------------------------------------
 GradGradGradGradGradGradGradGradGradGradGradGradGradGradGradGradGradGrad

 ---------------------------------------------------------------------------------------------------
                            Z-MATRIX (ANGSTROMS AND DEGREES)
   CD    Cent   Atom    N1       Length/X        N2       Alpha/Y        N3        Beta/Z          J
 ---------------------------------------------------------------------------------------------------
      1      1  C 
      2      2  C        1   1.392373(     1)
      3      3  C        1   1.397582(     2)      2  106.666(    10)
      4      4  H        1   1.078384(     3)      2  127.323(    11)      3  179.921(    18)      0
      5      5  C        2   1.393609(     4)      1  107.573(    12)      3    1.094(    19)      0
      6      6  N        3   1.459164(     5)      1  109.439(    13)      2    0.895(    20)      0
      7      7  H        3   1.079087(     6)      1  129.613(    14)      6  162.909(    21)      0
      8      8  H        2   1.079468(     7)      1  126.058(    15)      5  177.747(    22)      0
      9      9  H        3   1.294194(     8)      1  114.608(    16)      6  -58.962(    23)      0
     10     10  H        5   1.080573(     9)      2  127.753(    17)      1  173.901(    24)      0
 ---------------------------------------------------------------------------------------------------
                         Z-Matrix orientation:                         
 ---------------------------------------------------------------------
 Center     Atomic      Atomic             Coordinates (Angstroms)
 Number     Number       Type             X           Y           Z
 ---------------------------------------------------------------------
      1          6           0        0.000000    0.000000    0.000000
      2          6           0        0.000000    0.000000    1.392373
      3          6           0        1.338872    0.000000   -0.400820
      4          1           0       -0.857567   -0.001188   -0.653826
      5          6           0        1.328331    0.025367    1.813134
      6          7           0        2.198663   -0.021493    0.777932
      7          1           0        1.769036   -0.231865   -1.362915
      8          1           0       -0.872492    0.017653    2.027745
      9          1           0        2.033641    0.998582    0.040844
     10          1           0        1.700750    0.123272    2.822765
 ---------------------------------------------------------------------
                    Distance matrix (angstroms):
                    1          2          3          4          5
     1  C    0.000000
     2  C    1.392373   0.000000
     3  C    1.397582   2.237883   0.000000
     4  H    1.078384   2.218637   2.210963   0.000000
     5  C    2.247790   1.393609   2.214124   3.296171   0.000000
     6  N    2.332330   2.283007   1.459164   3.375039   1.353262
     7  H    2.245169   3.282508   1.079087   2.730396   3.216780
     8  H    2.207556   1.079468   3.284565   2.681678   2.211276
     9  H    2.265950   2.638085   1.294194   3.137067   2.141406
    10  H    3.297841   2.225707   3.246175   4.318236   1.080573
                    6          7          8          9         10
     6  N    0.000000
     7  H    2.193641   0.000000
     8  H    3.315956   4.305404   0.000000
     9  H    1.269285   1.885353   3.654533   0.000000
    10  H    2.109554   4.201274   2.695327   2.935314   0.000000
 Symmetry turned off by external request.
 Stoichiometry    C4H5N
 Framework group  C1[X(C4H5N)]
 Deg. of freedom    24
 Full point group                 C1      NOp   1
 Rotational constants (GHZ):           9.1994579           8.8369530           4.5945866
 1\1\GINC-BHC0026\FTS\RB3LYP\def2TZVP\C4H5N1\DHANAWAY\10-Jun-2022\1\\# 
 Opt=(TS, CalcFC, noeigentest, Z-matrix, MaxStep=10) geom=allcheckpoint
  guess=read Field=read NoSymm B3LYP/Def2TZVP freq=noraman pop=none\\ts
 _zmat_initalOpt\\0,1\C\C,1,R2\C,1,R3,2,A3\H,1,R4,2,A4,3,D4,0\C,2,R5,1,
 A5,3,D5,0\N,3,R6,1,A6,2,D6,0\H,3,R7,1,A7,6,D7,0\H,2,R8,1,A8,5,D8,0\H,3
 ,R9,1,A9,6,D9,0\H,5,R10,2,A10,1,D10,0\\R2=1.39237306\R3=1.39758165\R4=
 1.07838352\R5=1.39360917\R6=1.45916412\R7=1.07908694\R8=1.07946833\R9=
 1.29419368\R10=1.08057254\A3=106.6661932\A4=127.32255873\A5=107.573063
 89\A6=109.43893554\A7=129.61252269\A8=126.05752346\A9=114.60820005\A10
 =127.7527741\D4=179.92065861\D5=1.09405553\D6=0.89499374\D7=162.909319
 31\D8=177.74681718\D9=-58.96172216\D10=173.90086119\\Version=ES64L-G16
 RevA.03\HF=-210.1814349\RMSD=3.334e-09\RMSF=1.578e-04\Dipole=-0.803736
 2,0.3124924,-0.493775\PG=C01 [X(C4H5N1)]\\@


 A MAN IS NEVER SO BRILLIANT AS WHEN HE TAKES THE WORDS RIGHT OUT
 OF YOUR MOUTH. -- ARNOT SHEPPARD, JR.
 Job cpu time:       0 days  0 hours 20 minutes  0.4 seconds.
 Elapsed time:       0 days  0 hours  1 minutes 45.5 seconds.
 File lengths (MBytes):  RWF=     34 Int=      0 D2E=      0 Chk=     32 Scr=      1
 Normal termination of Gaussian 16 at Fri Jun 10 02:27:09 2022.
 Link1:  Proceeding to internal job step number  2.
 --------------------------------------------------------------------
 #N Geom=AllCheck Guess=TCheck SCRF=Check GenChk RB3LYP/def2TZVP Freq
 --------------------------------------------------------------------
 1/5=1,8=10,10=4,11=1,29=7,30=1,38=1,40=1/1,3;
 2/12=2,15=1,40=1/2;
 3/5=44,7=101,11=2,14=-4,25=1,30=1,70=2,71=2,74=-5,116=1,140=1/1,2,3;
 4/5=101/1;
 5/5=2,38=6,98=1/2;
 8/6=4,10=90,11=11/1;
 11/6=1,8=1,9=11,15=111,16=1,31=1/1,2,10;
 10/6=1,31=1/2;
 7/8=1,10=1,25=1,30=1/1,2,3,16;
 1/5=1,8=10,10=4,11=1,30=1/3;
 99//99;
 Structure from the checkpoint file:  "checkpoint.chk"
 -----------------
 ts_zmat_initalOpt
 -----------------
 Charge =  0 Multiplicity = 1
 Z-Matrix found in chk file.
 C
 C,1,R2
 C,1,R3,2,A3
 H,1,R4,2,A4,3,D4,0
 C,2,R5,1,A5,3,D5,0
 N,3,R6,1,A6,2,D6,0
 H,3,R7,1,A7,6,D7,0
 H,2,R8,1,A8,5,D8,0
 H,3,R9,1,A9,6,D9,0
 H,5,R10,2,A10,1,D10,0
      Variables:
 R2=1.39237306
 R3=1.39758165
 R4=1.07838352
 R5=1.39360917
 R6=1.45916412
 R7=1.07908694
 R8=1.07946833
 R9=1.29419368
 R10=1.08057254
 A3=106.6661932
 A4=127.32255873
 A5=107.57306389
 A6=109.43893554
 A7=129.61252269
 A8=126.05752346
 A9=114.60820005
 A10=127.7527741
 D4=179.92065861
 D5=1.09405553
 D6=0.89499374
 D7=162.90931931
 D8=177.74681718
 D9=-58.96172216
 D10=173.90086119
 Recover connectivity data from disk.

 GradGradGradGradGradGradGradGradGradGradGradGradGradGradGradGradGradGrad
 Berny optimization.
 Initialization pass.
                       ----------------------------
                       !    Initial Parameters    !
                       ! (Angstroms and Degrees)  !
 ----------------------                            ----------------------
 !      Name          Value   Derivative information (Atomic Units)     !
 ------------------------------------------------------------------------
 !       R2          1.3924   calculate D2E/DX2 analytically            !
 !       R3          1.3976   calculate D2E/DX2 analytically            !
 !       R4          1.0784   calculate D2E/DX2 analytically            !
 !       R5          1.3936   calculate D2E/DX2 analytically            !
 !       R6          1.4592   calculate D2E/DX2 analytically            !
 !       R7          1.0791   calculate D2E/DX2 analytically            !
 !       R8          1.0795   calculate D2E/DX2 analytically            !
 !       R9          1.2942   calculate D2E/DX2 analytically            !
 !       R10         1.0806   calculate D2E/DX2 analytically            !
 !       A3        106.6662   calculate D2E/DX2 analytically            !
 !       A4        127.3226   calculate D2E/DX2 analytically            !
 !       A5        107.5731   calculate D2E/DX2 analytically            !
 !       A6        109.4389   calculate D2E/DX2 analytically            !
 !       A7        129.6125   calculate D2E/DX2 analytically            !
 !       A8        126.0575   calculate D2E/DX2 analytically            !
 !       A9        114.6082   calculate D2E/DX2 analytically            !
 !       A10       127.7528   calculate D2E/DX2 analytically            !
 !       D4        179.9207   calculate D2E/DX2 analytically            !
 !       D5          1.0941   calculate D2E/DX2 analytically            !
 !       D6          0.895    calculate D2E/DX2 analytically            !
 !       D7        162.9093   calculate D2E/DX2 analytically            !
 !       D8        177.7468   calculate D2E/DX2 analytically            !
 !       D9        -58.9617   calculate D2E/DX2 analytically            !
 !       D10       173.9009   calculate D2E/DX2 analytically            !
 ------------------------------------------------------------------------
 Trust Radius=1.00D-01 FncErr=1.00D-07 GrdErr=1.00D-07 EigMax=2.50D+02 EigMin=1.00D-04
 Number of steps in this run=      2 maximum allowed number of steps=      2.
 Search for a saddle point of order  1.
 GradGradGradGradGradGradGradGradGradGradGradGradGradGradGradGradGradGrad

                          Input orientation:                          
 ---------------------------------------------------------------------
 Center     Atomic      Atomic             Coordinates (Angstroms)
 Number     Number       Type             X           Y           Z
 ---------------------------------------------------------------------
      1          6           0        0.000000    0.000000    0.000000
      2          6           0        0.000000    0.000000    1.392373
      3          6           0        1.338872    0.000000   -0.400820
      4          1           0       -0.857567   -0.001188   -0.653826
      5          6           0        1.328331    0.025367    1.813134
      6          7           0        2.198663   -0.021493    0.777932
      7          1           0        1.769036   -0.231865   -1.362915
      8          1           0       -0.872492    0.017653    2.027745
      9          1           0        2.033641    0.998582    0.040844
     10          1           0        1.700750    0.123272    2.822765
 ---------------------------------------------------------------------
                    Distance matrix (angstroms):
                    1          2          3          4          5
     1  C    0.000000
     2  C    1.392373   0.000000
     3  C    1.397582   2.237883   0.000000
     4  H    1.078384   2.218637   2.210963   0.000000
     5  C    2.247790   1.393609   2.214124   3.296171   0.000000
     6  N    2.332330   2.283007   1.459164   3.375039   1.353262
     7  H    2.245169   3.282508   1.079087   2.730396   3.216780
     8  H    2.207556   1.079468   3.284565   2.681678   2.211276
     9  H    2.265950   2.638085   1.294194   3.137067   2.141406
    10  H    3.297841   2.225707   3.246175   4.318236   1.080573
                    6          7          8          9         10
     6  N    0.000000
     7  H    2.193641   0.000000
     8  H    3.315956   4.305404   0.000000
     9  H    1.269285   1.885353   3.654533   0.000000
    10  H    2.109554   4.201274   2.695327   2.935314   0.000000
 Symmetry turned off by external request.
 Stoichiometry    C4H5N
 Framework group  C1[X(C4H5N)]
 Deg. of freedom    24
 Full point group                 C1      NOp   1
 Rotational constants (GHZ):           9.1994579           8.8369530           4.5945866
 Standard basis: def2TZVP (5D, 7F)
 The following finite field(s) will be applied:
 An electric field of              0.0059 -0.0014  0.0044
   185 basis functions,   295 primitive gaussians,   210 cartesian basis functions
    18 alpha electrons       18 beta electrons
       nuclear repulsion energy       160.5192806209 Hartrees.
 NAtoms=   10 NActive=   10 NUniq=   10 SFac= 1.00D+00 NAtFMM=   60 NAOKFM=F Big=F
 Integral buffers will be    131072 words long.
 Raffenetti 2 integral format.
 Two-electron integral symmetry is turned off.
 One-electron integrals computed using PRISM.
   1 Symmetry operations used in ECPInt.
 ECPInt:  NShTT=    2850 NPrTT=    8640 LenC2=    2843 LenP2D=    7479.
 LDataN:  DoStor=T MaxTD1= 6 Len=  172
 NBasis=   185 RedAO= T EigKep=  5.69D-05  NBF=   185
 NBsUse=   185 1.00D-06 EigRej= -1.00D+00 NBFU=   185
 The nuclear repulsion energy is now       161.1189118497 hartrees.
 Initial guess from the checkpoint file:  "checkpoint.chk"
 B after Tr=     0.000000    0.000000    0.000000
         Rot=    1.000000    0.000000    0.000000    0.000000 Ang=   0.00 deg.
 Keep R1 ints in memory in canonical form, NReq=160464061.
 Requested convergence on RMS density matrix=1.00D-08 within 128 cycles.
 Requested convergence on MAX density matrix=1.00D-06.
 Requested convergence on             energy=1.00D-06.
 No special actions if energy rises.
 SCF Done:  E(RB3LYP) =  -210.181434879     A.U. after    1 cycles
            NFock=  1  Conv=0.15D-08     -V/T= 2.0052
 DoSCS=F DFT=T ScalE2(SS,OS)=  1.000000  1.000000
 Range of M.O.s used for correlation:     1   185
 NBasis=   185 NAE=    18 NBE=    18 NFC=     0 NFV=     0
 NROrb=    185 NOA=    18 NOB=    18 NVA=   167 NVB=   167

 **** Warning!!: The largest alpha MO coefficient is  0.24567414D+02

   1 Symmetry operations used in ECPInt.
 ECPInt:  NShTT=    2850 NPrTT=    8640 LenC2=    2843 LenP2D=    7479.
 LDataN:  DoStor=T MaxTD1= 7 Len=  274
 Symmetrizing basis deriv contribution to polar:
 IMax=3 JMax=2 DiffMx= 0.00D+00
 G2DrvN: will do    11 centers at a time, making    1 passes.
 Calling FoFCou, ICntrl=  3107 FMM=F I1Cent=   0 AccDes= 0.00D+00.
 End of G2Drv F.D. properties file   721 does not exist.
 End of G2Drv F.D. properties file   722 does not exist.
 End of G2Drv F.D. properties file   788 does not exist.
          IDoAtm=1111111111
          Differentiating once with respect to electric field.
                with respect to dipole field.
          Differentiating once with respect to nuclear coordinates.
 Keep R1 ints in memory in canonical form, NReq=160431867.
          There are    33 degrees of freedom in the 1st order CPHF.  IDoFFX=6 NUNeed=     3.
     30 vectors produced by pass  0 Test12= 9.11D-15 3.03D-09 XBig12= 6.36D+01 4.62D+00.
 AX will form    30 AO Fock derivatives at one time.
     30 vectors produced by pass  1 Test12= 9.11D-15 3.03D-09 XBig12= 1.58D+01 7.34D-01.
     30 vectors produced by pass  2 Test12= 9.11D-15 3.03D-09 XBig12= 1.38D-01 7.54D-02.
     30 vectors produced by pass  3 Test12= 9.11D-15 3.03D-09 XBig12= 5.77D-04 3.45D-03.
     30 vectors produced by pass  4 Test12= 9.11D-15 3.03D-09 XBig12= 1.15D-06 1.17D-04.
     23 vectors produced by pass  5 Test12= 9.11D-15 3.03D-09 XBig12= 2.69D-09 6.64D-06.
      6 vectors produced by pass  6 Test12= 9.11D-15 3.03D-09 XBig12= 3.64D-12 3.03D-07.
      2 vectors produced by pass  7 Test12= 9.11D-15 3.03D-09 XBig12= 3.59D-15 7.33D-09.
 InvSVY:  IOpt=1 It=  1 EMax= 1.60D-14
 Solved reduced A of dimension   181 with    33 vectors.
 Isotropic polarizability for W=    0.000000       50.46 Bohr**3.
 End of Minotr F.D. properties file   721 does not exist.
 End of Minotr F.D. properties file   722 does not exist.
 End of Minotr F.D. properties file   788 does not exist.
   1 Symmetry operations used in ECPInt.
 ECPInt:  NShTT=    2850 NPrTT=    8640 LenC2=    2843 LenP2D=    7479.
 LDataN:  DoStor=T MaxTD1= 8 Len=  415
 Calling FoFJK, ICntrl=    100127 FMM=F ISym2X=0 I1Cent= 0 IOpClX= 0 NMat=1 NMatS=1 NMatT=0.
 Full mass-weighted force constant matrix:
 Low frequencies ----1487.7740   -8.8204    0.0004    0.0005    0.0006   15.4465
 Low frequencies ---   26.7572  589.5222  638.5111
 ******    1 imaginary frequencies (negative Signs) ****** 
 Diagonal vibrational polarizability:
        3.2070415       5.2066124       1.2267160
 Harmonic frequencies (cm**-1), IR intensities (KM/Mole), Raman scattering
 activities (A**4/AMU), depolarization ratios for plane and unpolarized
 incident light, reduced masses (AMU), force constants (mDyne/A),
 and normal coordinates:
                      1                      2                      3
                      A                      A                      A
 Frequencies --  -1487.7726               589.5216               638.5107
 Red. masses --      1.2139                 2.2439                 3.8775
 Frc consts  --      1.5831                 0.4595                 0.9314
 IR Inten    --    100.7128                 2.2722                 3.4966
  Atom  AN      X      Y      Z        X      Y      Z        X      Y      Z
     1   6     0.02  -0.00  -0.03     0.00  -0.19  -0.01    -0.00   0.16  -0.01
     2   6     0.02   0.00   0.02     0.00   0.22   0.00     0.00  -0.01  -0.00
     3   6    -0.06  -0.06  -0.01     0.00   0.05  -0.00    -0.00  -0.31   0.02
     4   1     0.01  -0.00  -0.01    -0.00  -0.30  -0.00     0.02   0.52  -0.03
     5   6    -0.04   0.01   0.02     0.00  -0.15   0.01    -0.00  -0.19   0.01
     6   7    -0.00   0.05  -0.06     0.01   0.04  -0.01     0.03   0.30  -0.01
     7   1     0.01   0.16  -0.03     0.09   0.40  -0.05     0.05  -0.33   0.05
     8   1     0.01  -0.01   0.01     0.00   0.56  -0.01     0.01   0.13   0.00
     9   1     0.61  -0.14   0.75    -0.33   0.15   0.22    -0.44   0.08  -0.13
    10   1    -0.00  -0.01   0.00     0.02  -0.36   0.02    -0.03  -0.37   0.03
                      4                      5                      6
                      A                      A                      A
 Frequencies --    754.8999               836.2483               873.9384
 Red. masses --      1.1167                 1.4328                 3.6498
 Frc consts  --      0.3749                 0.5903                 1.6424
 IR Inten    --     93.7095                 4.1028                14.0055
  Atom  AN      X      Y      Z        X      Y      Z        X      Y      Z
     1   6    -0.01  -0.03  -0.01    -0.03   0.04  -0.00    -0.22   0.05  -0.11
     2   6     0.01  -0.07  -0.00    -0.01   0.01  -0.02     0.05   0.03  -0.13
     3   6    -0.01  -0.03  -0.01    -0.02   0.06   0.01    -0.14  -0.06   0.16
     4   1    -0.02   0.52   0.01    -0.01  -0.35  -0.02    -0.15  -0.35  -0.22
     5   6    -0.00   0.01  -0.00     0.00  -0.17  -0.01     0.04   0.05  -0.06
     6   7     0.03  -0.03   0.01     0.05   0.04   0.01     0.27  -0.03   0.11
     7   1     0.02   0.44  -0.11    -0.11  -0.40   0.08    -0.21   0.45   0.01
     8   1     0.02   0.38  -0.00     0.03   0.19   0.03     0.24  -0.30   0.15
     9   1    -0.27   0.03   0.15     0.18  -0.01   0.03    -0.10  -0.06   0.08
    10   1    -0.05   0.52  -0.03    -0.13   0.76  -0.05    -0.30  -0.20   0.10
                      7                      8                      9
                      A                      A                      A
 Frequencies --    883.6455               891.8950               941.8096
 Red. masses --      1.7337                 2.8978                 2.1687
 Frc consts  --      0.7976                 1.3581                 1.1334
 IR Inten    --      9.7381                 6.1717                18.4231
  Atom  AN      X      Y      Z        X      Y      Z        X      Y      Z
     1   6     0.09   0.10   0.08     0.02  -0.09   0.11    -0.05  -0.09  -0.02
     2   6    -0.10   0.05   0.08    -0.20  -0.04   0.09    -0.02   0.11  -0.03
     3   6     0.06  -0.09  -0.01     0.04   0.06   0.05     0.05   0.01   0.23
     4   1     0.19  -0.47  -0.05     0.19   0.40  -0.12     0.14   0.47  -0.26
     5   6    -0.06  -0.02  -0.06    -0.09   0.03  -0.20     0.05  -0.05  -0.05
     6   7     0.03  -0.02  -0.05     0.19   0.02  -0.03    -0.08   0.00  -0.10
     7   1    -0.10   0.52  -0.23    -0.24  -0.29   0.01     0.15   0.06   0.26
     8   1    -0.14  -0.40   0.04    -0.08   0.35   0.24     0.04  -0.57   0.07
     9   1    -0.27   0.03   0.03     0.34  -0.04  -0.07     0.12   0.09  -0.05
    10   1     0.03   0.26  -0.12    -0.17  -0.33  -0.14     0.18   0.30  -0.14
                     10                     11                     12
                      A                      A                      A
 Frequencies --    955.1899              1068.1336              1093.2591
 Red. masses --      1.8269                 1.3747                 1.2386
 Frc consts  --      0.9821                 0.9241                 0.8723
 IR Inten    --     21.4408                11.5715                 1.1141
  Atom  AN      X      Y      Z        X      Y      Z        X      Y      Z
     1   6    -0.01   0.09  -0.03    -0.06   0.02  -0.01    -0.06   0.01   0.07
     2   6    -0.00  -0.13  -0.00     0.03   0.01   0.05    -0.04  -0.01  -0.06
     3   6     0.03  -0.01   0.17     0.08  -0.01  -0.05     0.05  -0.02   0.04
     4   1     0.18  -0.47  -0.26    -0.19  -0.05   0.16    -0.44  -0.07   0.57
     5   6     0.03   0.05  -0.04    -0.05  -0.00  -0.10     0.02  -0.01  -0.04
     6   7    -0.08  -0.01  -0.08    -0.05  -0.00   0.03     0.02   0.01  -0.01
     7   1     0.11   0.10   0.18     0.52   0.03   0.12     0.31   0.18   0.10
     8   1     0.07   0.69   0.07     0.44  -0.04   0.60    -0.29   0.07  -0.40
     9   1    -0.02   0.07   0.00     0.00  -0.00   0.06     0.23  -0.04  -0.09
    10   1     0.19  -0.15  -0.08    -0.24   0.02  -0.04     0.10   0.01  -0.08
                     13                     14                     15
                      A                      A                      A
 Frequencies --   1135.2814              1176.4363              1248.5280
 Red. masses --      2.1765                 1.1500                 1.7889
 Frc consts  --      1.6528                 0.9377                 1.6430
 IR Inten    --      1.8432                24.9827                 1.8997
  Atom  AN      X      Y      Z        X      Y      Z        X      Y      Z
     1   6    -0.13   0.01  -0.11     0.01   0.02   0.00     0.05  -0.00   0.01
     2   6    -0.16  -0.01   0.11     0.00  -0.00   0.01     0.02   0.00  -0.07
     3   6     0.02  -0.00  -0.12    -0.02   0.03   0.01    -0.03  -0.00   0.01
     4   1     0.04  -0.01  -0.36    -0.05  -0.01   0.09    -0.05   0.01   0.14
     5   6     0.10  -0.00   0.08    -0.01   0.04  -0.02     0.00  -0.01  -0.15
     6   7     0.07   0.00   0.05     0.05  -0.05  -0.05    -0.06   0.02   0.17
     7   1     0.44  -0.00   0.06     0.22  -0.42   0.24    -0.34  -0.09  -0.10
     8   1    -0.19  -0.01   0.11    -0.12  -0.11  -0.16     0.13  -0.03   0.06
     9   1     0.06  -0.06   0.03    -0.54   0.18   0.57    -0.07  -0.02   0.29
    10   1     0.70   0.04  -0.13    -0.00  -0.01  -0.03     0.70  -0.01  -0.42
                     16                     17                     18
                      A                      A                      A
 Frequencies --   1311.6262              1432.7751              1483.0230
 Red. masses --      1.8045                 2.8937                 3.1249
 Frc consts  --      1.8291                 3.5000                 4.0493
 IR Inten    --      2.2294                 8.4857                 3.2174
  Atom  AN      X      Y      Z        X      Y      Z        X      Y      Z
     1   6     0.02   0.00   0.11    -0.16   0.01   0.16    -0.12  -0.00  -0.16
     2   6     0.05   0.01   0.02    -0.08  -0.00  -0.12     0.17   0.00   0.29
     3   6    -0.15  -0.00  -0.05     0.19  -0.03  -0.08     0.13   0.00   0.03
     4   1     0.41   0.00  -0.38     0.14  -0.01  -0.26    -0.18  -0.00  -0.14
     5   6     0.07  -0.01  -0.13     0.21   0.02  -0.01    -0.03  -0.01  -0.13
     6   7    -0.04   0.01   0.09    -0.09   0.01   0.03    -0.05   0.00   0.05
     7   1     0.54   0.11   0.24    -0.35  -0.12  -0.32    -0.37  -0.04  -0.20
     8   1    -0.20  -0.02  -0.34    -0.00  -0.00  -0.00    -0.45   0.00  -0.55
     9   1     0.08  -0.15  -0.07    -0.01   0.15   0.51     0.02   0.08   0.04
    10   1    -0.26   0.00  -0.01    -0.40  -0.05   0.23    -0.24  -0.01  -0.08
                     19                     20                     21
                      A                      A                      A
 Frequencies --   1511.7921              2180.7881              3202.8225
 Red. masses --      3.5778                 1.0724                 1.0901
 Frc consts  --      4.8178                 3.0048                 6.5883
 IR Inten    --      1.7747                13.7509                15.0313
  Atom  AN      X      Y      Z        X      Y      Z        X      Y      Z
     1   6     0.19  -0.00  -0.20     0.01   0.00   0.00     0.00   0.00   0.00
     2   6    -0.20   0.00   0.08     0.00  -0.00   0.00    -0.02   0.00   0.02
     3   6    -0.10  -0.00   0.05    -0.04  -0.04  -0.02     0.00  -0.00  -0.00
     4   1    -0.31  -0.00   0.46     0.01   0.00   0.00    -0.05   0.00  -0.03
     5   6     0.29   0.00  -0.08    -0.01   0.00  -0.00    -0.03  -0.01  -0.08
     6   7    -0.07   0.00   0.05     0.01  -0.03   0.02    -0.00   0.00  -0.00
     7   1    -0.11   0.02   0.07     0.04   0.01  -0.01    -0.02   0.01   0.05
     8   1    -0.12  -0.01   0.25     0.00   0.01   0.00     0.27  -0.01  -0.20
     9   1    -0.04  -0.01   0.06     0.26   0.96  -0.06     0.00   0.00   0.00
    10   1    -0.54  -0.01   0.25     0.01   0.01  -0.01     0.33   0.08   0.87
                     22                     23                     24
                      A                      A                      A
 Frequencies --   3228.1081              3232.6637              3251.0577
 Red. masses --      1.0938                 1.0937                 1.1041
 Frc consts  --      6.7156                 6.7339                 6.8754
 IR Inten    --      4.8291                 1.0573                 1.1303
  Atom  AN      X      Y      Z        X      Y      Z        X      Y      Z
     1   6     0.03   0.00   0.02     0.01  -0.00   0.01    -0.06  -0.00  -0.05
     2   6    -0.05   0.00   0.04     0.04  -0.00  -0.03    -0.02   0.00   0.02
     3   6     0.01  -0.01  -0.03     0.03  -0.02  -0.06     0.02  -0.01  -0.03
     4   1    -0.38  -0.00  -0.29    -0.17   0.00  -0.13     0.67   0.00   0.51
     5   6     0.01   0.00   0.03    -0.01  -0.00  -0.01     0.00   0.00   0.01
     6   7     0.00  -0.00  -0.00    -0.00  -0.00   0.00     0.00  -0.00   0.00
     7   1    -0.15   0.08   0.33    -0.33   0.18   0.73    -0.17   0.09   0.37
     8   1     0.59  -0.01  -0.43    -0.41   0.01   0.30     0.25  -0.00  -0.18
     9   1     0.00   0.01  -0.01     0.00   0.01  -0.01     0.00   0.00  -0.00
    10   1    -0.11  -0.03  -0.29     0.04   0.01   0.10    -0.03  -0.01  -0.08

 -------------------
 - Thermochemistry -
 -------------------
 Temperature   298.150 Kelvin.  Pressure   1.00000 Atm.
 Atom     1 has atomic number  6 and mass  12.00000
 Atom     2 has atomic number  6 and mass  12.00000
 Atom     3 has atomic number  6 and mass  12.00000
 Atom     4 has atomic number  1 and mass   1.00783
 Atom     5 has atomic number  6 and mass  12.00000
 Atom     6 has atomic number  7 and mass  14.00307
 Atom     7 has atomic number  1 and mass   1.00783
 Atom     8 has atomic number  1 and mass   1.00783
 Atom     9 has atomic number  1 and mass   1.00783
 Atom    10 has atomic number  1 and mass   1.00783
 Molecular mass:    67.04220 amu.
 Principal axes and moments of inertia in atomic units:
                           1         2         3
     Eigenvalues --   196.17908 204.22664 392.79730
           X            0.96631  -0.25710  -0.01197
           Y            0.01356   0.00439   0.99990
           Z            0.25702   0.96637  -0.00773
 This molecule is an asymmetric top.
 Rotational symmetry number  1.
 Rotational temperatures (Kelvin)      0.44150     0.42411     0.22051
 Rotational constants (GHZ):           9.19946     8.83695     4.59459
    1 imaginary frequencies ignored.
 Zero-point vibrational energy     202898.3 (Joules/Mol)
                                   48.49387 (Kcal/Mol)
 Warning -- explicit consideration of   1 degrees of freedom as
           vibrations may cause significant error
 Vibrational temperatures:    848.19   918.67  1086.13  1203.17  1257.40
          (Kelvin)           1271.37  1283.24  1355.05  1374.31  1536.81
                             1572.96  1633.42  1692.63  1796.35  1887.14
                             2061.44  2133.74  2175.13  3137.67  4608.15
                             4644.53  4651.08  4677.55
 
 Zero-point correction=                           0.077280 (Hartree/Particle)
 Thermal correction to Energy=                    0.080977
 Thermal correction to Enthalpy=                  0.081921
 Thermal correction to Gibbs Free Energy=         0.050995
 Sum of electronic and zero-point Energies=           -210.104155
 Sum of electronic and thermal Energies=              -210.100458
 Sum of electronic and thermal Enthalpies=            -210.099514
 Sum of electronic and thermal Free Energies=         -210.130440
 
                     E (Thermal)             CV                S
                      KCal/Mol        Cal/Mol-Kelvin    Cal/Mol-Kelvin
 Total                   50.814             13.369             65.090
 Electronic               0.000              0.000              0.000
 Translational            0.889              2.981             38.526
 Rotational               0.889              2.981             24.268
 Vibrational             49.036              7.407              2.296
 Vibration     1          0.947              1.054              0.468
                       Q            Log10(Q)             Ln(Q)
 Total Bot       0.350079D-23        -23.455834        -54.009054
 Total V=0       0.123146D+13         12.090420         27.839220
 Vib (Bot)       0.361308D-35        -35.442123        -81.608503
 Vib (Bot)    1  0.256015D+00         -0.591735         -1.362520
 Vib (V=0)       0.127096D+01          0.104131          0.239771
 Vib (V=0)    1  0.106173D+01          0.026015          0.059902
 Electronic      0.100000D+01          0.000000          0.000000
 Translational   0.215763D+08          7.333976         16.887104
 Rotational      0.449068D+05          4.652312         10.712345
 -------------------------------------------------------------------
 Center     Atomic                   Forces (Hartrees/Bohr)
 Number     Number              X              Y              Z
 -------------------------------------------------------------------
      1        6           0.000253553   -0.000641128    0.000001318
      2        6          -0.000256388    0.000352458   -0.000000048
      3        6           0.000001549    0.000285805   -0.000007595
      4        1          -0.000000104    0.000000210   -0.000000019
      5        6           0.000003670   -0.000000243   -0.000000774
      6        7          -0.000002910    0.000001820    0.000008862
      7        1          -0.000001724    0.000000942   -0.000001949
      8        1          -0.000000122    0.000000093   -0.000000006
      9        1           0.000002479    0.000000578   -0.000000361
     10        1          -0.000000004   -0.000000536    0.000000572
 -------------------------------------------------------------------
 Cartesian Forces:  Max     0.000641128 RMS     0.000157814
 -----------------------------------------------------------------------------------------------
                       Internal Coordinate Forces (Hartree/Bohr or radian)
  Cent   Atom   N1       Length/X         N2         Alpha/Y        N3         Beta/Z          J
 -----------------------------------------------------------------------------------------------
      1  C 
      2  C        1  -0.000000(     1)
      3  C        1  -0.000000(     2)      2  -0.000011(    10)
      4  H        1   0.000000(     3)      2  -0.000000(    11)      3   0.000000(    18)     0
      5  C        2   0.000003(     4)      1  -0.000003(    12)      3  -0.000003(    19)     0
      6  N        3   0.000005(     5)      1  -0.000021(    13)      2  -0.000003(    20)     0
      7  H        3   0.000001(     6)      1  -0.000004(    14)      6   0.000002(    21)     0
      8  H        2   0.000000(     7)      1  -0.000000(    15)      5  -0.000000(    22)     0
      9  H        3   0.000002(     8)      1   0.000005(    16)      6   0.000000(    23)     0
     10  H        5   0.000000(     9)      2  -0.000000(    17)      1   0.000001(    24)     0
 -----------------------------------------------------------------------------------------------
 Internal  Forces:  Max     0.000020856 RMS     0.000005253

 GradGradGradGradGradGradGradGradGradGradGradGradGradGradGradGradGradGrad
 Berny optimization.
 Search for a saddle point.
 Step number   1 out of a maximum of    2
 All quantities printed in internal units (Hartrees-Bohrs-Radians)
 Swapping is turned off.
 Second derivative matrix not updated -- analytic derivatives used.
 ITU=  0
     Eigenvalues ---   -0.26050   0.03432   0.04791   0.05463   0.06272
     Eigenvalues ---    0.12946   0.17333   0.18561   0.19952   0.21553
     Eigenvalues ---    0.24088   0.25096   0.29087   0.35517   0.36140
     Eigenvalues ---    0.36431   0.36850   0.37102   0.40924   0.47715
     Eigenvalues ---    0.58936   1.53446   2.17451  13.82111
 Eigenvectors required to have negative eigenvalues:
                          D9        R9        A9        D7        R6
   1                    0.74904   0.53422   0.20731   0.16177  -0.15247
                          R3        R2        R5        A6        A10
   1                   -0.14909   0.11775  -0.11701   0.08553   0.04297
 Angle between quadratic step and forces=  60.83 degrees.
 Linear search not attempted -- option 19 set.
 Variable       Old X    -DE/DX   Delta X   Delta X   Delta X     New X
                                 (Linear)    (Quad)   (Total)
    R2        2.63120  -0.00000   0.00000  -0.00000  -0.00000   2.63120
    R3        2.64105  -0.00000   0.00000   0.00001   0.00001   2.64106
    R4        2.03785   0.00000   0.00000   0.00000   0.00000   2.03785
    R5        2.63354   0.00000   0.00000   0.00000   0.00000   2.63354
    R6        2.75742   0.00001   0.00000   0.00002   0.00002   2.75744
    R7        2.03918   0.00000   0.00000   0.00000   0.00000   2.03918
    R8        2.03990   0.00000   0.00000   0.00000   0.00000   2.03990
    R9        2.44567   0.00000   0.00000   0.00001   0.00001   2.44568
   R10        2.04199   0.00000   0.00000   0.00000   0.00000   2.04199
    A3        1.86168  -0.00001   0.00000   0.00001   0.00001   1.86168
    A4        2.22220  -0.00000   0.00000  -0.00000  -0.00000   2.22219
    A5        1.87750  -0.00000   0.00000   0.00000   0.00000   1.87750
    A6        1.91007  -0.00002   0.00000  -0.00001  -0.00001   1.91006
    A7        2.26217  -0.00000   0.00000  -0.00001  -0.00001   2.26215
    A8        2.20012  -0.00000   0.00000  -0.00000  -0.00000   2.20012
    A9        2.00029   0.00000   0.00000   0.00001   0.00001   2.00030
   A10        2.22971  -0.00000   0.00000  -0.00000  -0.00000   2.22970
    D4        3.14021   0.00000   0.00000   0.00001   0.00001   3.14022
    D5        0.01909  -0.00000   0.00000  -0.00001  -0.00001   0.01909
    D6        0.01562  -0.00000   0.00000   0.00001   0.00001   0.01563
    D7        2.84330   0.00000   0.00000   0.00001   0.00001   2.84331
    D8        3.10227  -0.00000   0.00000   0.00001   0.00001   3.10227
    D9       -1.02908   0.00000   0.00000   0.00000   0.00000  -1.02907
   D10        3.03514   0.00000   0.00000   0.00002   0.00002   3.03516
         Item               Value     Threshold  Converged?
 Maximum Force            0.000021     0.000450     YES
 RMS     Force            0.000005     0.000300     YES
 Maximum Displacement     0.000022     0.001800     YES
 RMS     Displacement     0.000009     0.001200     YES
 Predicted change in Energy=-2.630393D-10
 Optimization completed.
    -- Stationary point found.
                       ----------------------------
                       !   Optimized Parameters   !
                       ! (Angstroms and Degrees)  !
 ----------------------                            ----------------------
 !      Name          Value   Derivative information (Atomic Units)     !
 ------------------------------------------------------------------------
 !       R2          1.3924   -DE/DX =    0.0                           !
 !       R3          1.3976   -DE/DX =    0.0                           !
 !       R4          1.0784   -DE/DX =    0.0                           !
 !       R5          1.3936   -DE/DX =    0.0                           !
 !       R6          1.4592   -DE/DX =    0.0                           !
 !       R7          1.0791   -DE/DX =    0.0                           !
 !       R8          1.0795   -DE/DX =    0.0                           !
 !       R9          1.2942   -DE/DX =    0.0                           !
 !       R10         1.0806   -DE/DX =    0.0                           !
 !       A3        106.6662   -DE/DX =    0.0                           !
 !       A4        127.3226   -DE/DX =    0.0                           !
 !       A5        107.5731   -DE/DX =    0.0                           !
 !       A6        109.4389   -DE/DX =    0.0                           !
 !       A7        129.6125   -DE/DX =    0.0                           !
 !       A8        126.0575   -DE/DX =    0.0                           !
 !       A9        114.6082   -DE/DX =    0.0                           !
 !       A10       127.7528   -DE/DX =    0.0                           !
 !       D4        179.9207   -DE/DX =    0.0                           !
 !       D5          1.0941   -DE/DX =    0.0                           !
 !       D6          0.895    -DE/DX =    0.0                           !
 !       D7        162.9093   -DE/DX =    0.0                           !
 !       D8        177.7468   -DE/DX =    0.0                           !
 !       D9        -58.9617   -DE/DX =    0.0                           !
 !       D10       173.9009   -DE/DX =    0.0                           !
 ------------------------------------------------------------------------
 GradGradGradGradGradGradGradGradGradGradGradGradGradGradGradGradGradGrad


 ----------------------------------------------------------------------

 Electric dipole moment (input orientation):
 (Debye = 10**-18 statcoulomb cm , SI units = C m)
                  (au)            (Debye)         (10**-30 SI)
   Tot        0.993709D+00      0.252576D+01      0.842502D+01
   x         -0.803737D+00     -0.204289D+01     -0.681436D+01
   y          0.312493D+00      0.794277D+00      0.264942D+01
   z         -0.493775D+00     -0.125505D+01     -0.418640D+01

 Dipole polarizability, Alpha (input orientation).
 (esu units = cm**3 , SI units = C**2 m**2 J**-1)
 Alpha(0;0):
               (au)            (10**-24 esu)      (10**-40 SI)
   iso        0.504555D+02      0.747674D+01      0.831899D+01
   aniso      0.247230D+02      0.366358D+01      0.407628D+01
   xx         0.564955D+02      0.837176D+01      0.931484D+01
   yx         0.187930D+01      0.278484D+00      0.309855D+00
   yy         0.343220D+02      0.508599D+01      0.565893D+01
   zx        -0.544427D+00     -0.806758D-01     -0.897639D-01
   zy        -0.766576D+00     -0.113595D+00     -0.126391D+00
   zz         0.605492D+02      0.897246D+01      0.998321D+01

 ----------------------------------------------------------------------

 Dipole orientation:
     6          0.00000000         -0.00000000          0.00000000
     6         -2.12818265         -0.82743694         -1.30744786
     6          2.03699561         -0.19171933         -1.67003576
     1          0.08663968          0.66600582          1.92399596
     6         -1.35000654         -1.54877779         -3.71776742
     7          1.14311189         -1.13035595         -4.10381909
     1          3.89069414          0.65110815         -1.56189823
     1         -4.02185439         -0.95601434         -0.56000876
     1          2.42170677         -2.43965428         -2.55326581
     1         -2.46554946         -2.44113871         -5.17686421

 Electric dipole moment (dipole orientation):
 (Debye = 10**-18 statcoulomb cm , SI units = C m)
                  (au)            (Debye)         (10**-30 SI)
   Tot        0.993709D+00      0.252576D+01      0.842502D+01
   x          0.000000D+00      0.000000D+00      0.000000D+00
   y          0.000000D+00      0.000000D+00      0.000000D+00
   z          0.993709D+00      0.252576D+01      0.842502D+01

 Dipole polarizability, Alpha (dipole orientation).
 (esu units = cm**3 , SI units = C**2 m**2 J**-1)
 Alpha(0;0):
               (au)            (10**-24 esu)      (10**-40 SI)
   iso        0.504555D+02      0.747674D+01      0.831899D+01
   aniso      0.247230D+02      0.366358D+01      0.407628D+01
   xx         0.595732D+02      0.882784D+01      0.982230D+01
   yx         0.299097D+01      0.443216D+00      0.493144D+00
   yy         0.376438D+02      0.557824D+01      0.620663D+01
   zx         0.574652D+00      0.851546D-01      0.947473D-01
   zy         0.800050D+01      0.118555D+01      0.131910D+01
   zz         0.541495D+02      0.802413D+01      0.892805D+01

 ----------------------------------------------------------------------
 1\1\GINC-BHC0026\Freq\RB3LYP\def2TZVP\C4H5N1\DHANAWAY\10-Jun-2022\1\\#
 N Geom=AllCheck Guess=TCheck SCRF=Check GenChk RB3LYP/def2TZVP Freq\\t
 s_zmat_initalOpt\\0,1\C\C,1,R2\C,1,R3,2,A3\H,1,R4,2,A4,3,D4,0\C,2,R5,1
 ,A5,3,D5,0\N,3,R6,1,A6,2,D6,0\H,3,R7,1,A7,6,D7,0\H,2,R8,1,A8,5,D8,0\H,
 3,R9,1,A9,6,D9,0\H,5,R10,2,A10,1,D10,0\\R2=1.39237306\R3=1.39758165\R4
 =1.07838352\R5=1.39360917\R6=1.45916412\R7=1.07908694\R8=1.07946833\R9
 =1.29419368\R10=1.08057254\A3=106.6661932\A4=127.32255873\A5=107.57306
 389\A6=109.43893554\A7=129.61252269\A8=126.05752346\A9=114.60820005\A1
 0=127.7527741\D4=179.92065861\D5=1.09405553\D6=0.89499374\D7=162.90931
 931\D8=177.74681718\D9=-58.96172216\D10=173.90086119\\Version=ES64L-G1
 6RevA.03\HF=-210.1814349\RMSD=1.509e-09\RMSF=1.578e-04\ZeroPoint=0.077
 2799\Thermal=0.0809769\Dipole=-0.8037367,0.3124926,-0.4937752\DipoleDe
 riv=-0.0358205,0.0556344,0.0237352,0.0219108,-0.163421,-0.0913216,-0.0
 183206,-0.0712123,0.0135954,0.0559067,0.0105157,-0.0722171,-0.025161,-
 0.1571215,-0.0351542,-0.0430765,0.04921,-0.0242873,0.1741954,-0.050974
 ,-0.0214003,-0.2328975,-0.1654661,0.2802897,0.1086692,0.136586,-0.0998
 158,0.0552942,-0.0045325,-0.0416939,-0.0111121,0.1720353,0.0087352,-0.
 0359496,0.001075,0.0743257,0.1176971,-0.0428481,0.0546067,0.093585,-0.
 139622,0.0753019,0.1212856,0.0720415,0.0763595,-0.7266661,-0.0573555,0
 .0163986,0.139941,-0.1326216,-0.0835901,-0.3345054,-0.2141877,-0.08992
 74,0.0661719,0.0095084,0.0263769,0.0654096,0.1767499,-0.1064049,0.0101
 298,-0.0290267,0.0423492,0.0121982,0.0014261,0.0698497,0.0081258,0.165
 3879,0.0054797,0.0732772,0.0003136,0.0362875,0.2373007,0.0893437,0.012
 0816,-0.0269451,0.0942458,-0.009459,0.1710435,0.0698872,0.0778351,0.04
 37225,-0.0107184,-0.0677374,-0.0328565,0.1498333,-0.0438768,-0.0525533
 ,-0.0146867,-0.1067219\Polar=56.4954515,1.8793004,34.3219694,-0.544427
 3,-0.7665762,60.5491875\PG=C01 [X(C4H5N1)]\NImag=1\\0.73574697,0.00015
 072,0.13328676,0.13440744,0.00523264,0.66809148,-0.12195918,-0.0004813
 4,0.02540232,0.74108775,0.00059388,-0.06479539,-0.00068430,0.00156281,
 0.13473473,-0.02056246,-0.00089843,-0.32986844,-0.12758848,0.00583263,
 0.66709325,-0.29376651,0.00064345,0.03828437,0.01601984,-0.00164715,0.
 08533672,0.54298574,0.02887171,-0.06843682,-0.03871056,0.02449963,0.01
 024053,0.02930658,-0.06233044,0.13898521,0.07360830,-0.00539110,-0.116
 50852,0.02433149,-0.00138520,-0.03178771,-0.17000473,0.08689400,0.6617
 3569,-0.24582523,-0.00120822,-0.14248330,0.00804027,0.00021107,0.00412
 570,-0.01045923,0.00071231,-0.01837982,0.25224404,0.00118370,-0.032454
 33,-0.00043155,0.00006212,0.00166749,-0.00000491,-0.00168047,-0.000381
 68,-0.00009156,0.00076124,0.02386016,-0.14262362,0.00042074,-0.1668357
 9,-0.02338445,-0.00010205,-0.00679605,0.00827074,-0.00047092,0.0112465
 3,0.15423938,-0.00003883,0.16676354,0.01618852,0.00134906,-0.09124665,
 -0.29817688,-0.00069356,-0.03811323,-0.05286228,-0.04467733,-0.0093099
 5,-0.00021338,-0.00056957,-0.00018234,0.60565224,-0.00613182,0.0123781
 6,0.00492690,-0.01212132,-0.06645026,-0.01188287,0.01178759,0.01351127
 ,0.00120359,-0.00009372,0.00495982,-0.00012058,0.02354771,0.14643930,-
 0.03058722,-0.00086762,-0.02174888,-0.08104564,-0.00654187,-0.13624629
 ,0.02230349,0.02620336,-0.09115592,0.00253760,0.00041039,-0.00571407,0
 .09382852,0.03212916,0.78291313,-0.06843798,0.00241293,-0.00497315,-0.
 07422097,0.00167003,-0.00417919,-0.10882834,0.00659531,-0.00991975,-0.
 00404667,-0.00007355,0.00465091,-0.18065403,0.01100892,0.09453511,0.42
 124170,-0.03044227,0.01125313,0.02586397,-0.01962688,0.01580870,-0.024
 61686,0.07538553,0.02678882,0.01597523,-0.00066784,0.00580575,0.000699
 35,0.04464117,-0.08572948,-0.02634673,-0.02851295,0.10961752,-0.002908
 17,-0.00428450,-0.05762119,0.06692132,0.00726892,0.03000249,-0.1613994
 4,-0.09047756,-0.14676153,0.00083111,0.00030531,-0.00014251,0.09949156
 ,-0.00941506,-0.20163945,-0.07342811,0.06118178,0.36220291,0.00202132,
 0.00670665,0.02249923,-0.00596847,-0.00039469,0.00199819,-0.10731016,0
 .02922614,0.11298077,0.00021903,-0.00046849,-0.00063007,-0.00428338,0.
 00019133,-0.00464752,0.01194896,-0.00842797,-0.01590558,0.10227138,-0.
 00484361,-0.00003118,0.00689599,-0.00418757,0.00357144,-0.00334918,0.0
 3715235,-0.03439653,-0.06474502,-0.00005189,-0.00175831,-0.00006693,0.
 00530587,0.00165858,-0.00207731,-0.00331253,-0.01231601,0.01705934,-0.
 02832901,0.04150156,-0.00069603,0.00058563,0.00061936,0.00075916,-0.00
 125209,0.00131084,0.10674295,-0.06209845,-0.28214630,0.00053229,0.0003
 9602,-0.00021190,-0.00547615,-0.00123931,-0.00142043,0.00927130,-0.003
 51270,-0.01712375,-0.11267456,0.06617230,0.30123988,0.00718486,-0.0000
 8159,-0.00387471,-0.24900485,0.00377775,0.13741553,-0.00032372,0.00066
 053,-0.00237004,-0.00010086,0.00000406,0.00066751,-0.00869173,0.000688
 96,0.01896265,-0.00552660,-0.00115273,0.00130016,0.00047896,-0.0000977
 2,0.00006937,0.25629078,-0.00002630,0.00146196,0.00067692,0.00418745,-
 0.03569971,-0.00336218,0.00056949,0.00582065,0.00119472,-0.00000981,-0
 .00295847,-0.00001443,-0.00108145,-0.00124632,0.00164271,-0.00238943,0
 .00768981,-0.00169051,-0.00062335,0.00070648,-0.00022641,-0.00427425,0
 .02535752,0.02460516,-0.00031796,-0.00679913,0.13680355,-0.00242079,-0
 .15922744,0.00092895,-0.00016980,-0.00595601,-0.00068452,0.00011599,0.
 00085130,-0.00832548,0.00026642,0.01143505,-0.00424085,-0.00075932,0.0
 0079042,0.00133912,0.00021686,0.00009023,-0.15061696,0.00297821,0.1597
 0063,-0.02555325,-0.00937639,0.02384237,-0.01713040,-0.00268855,-0.014
 01817,0.01792301,0.01617766,-0.00481305,-0.00046514,0.00056662,0.00032
 005,0.02038449,-0.01715777,-0.01564864,-0.00259252,-0.03338286,0.06255
 607,-0.00031975,-0.00118110,0.00064023,-0.00053229,0.00347348,-0.00064
 031,0.00788282,0.00905147,0.00256921,-0.00202743,0.00410508,-0.0001488
 2,0.00702522,-0.05766122,-0.09547328,-0.03430173,0.00030440,0.00052621
 ,-0.00032105,-0.01389412,0.00505643,0.00236971,0.01337467,-0.07341201,
 0.02327392,0.00107220,-0.00076627,0.00061147,0.00050148,0.00085489,0.0
 0007363,0.04256383,0.15927978,-0.03479347,0.00588226,0.03043853,-0.023
 96836,-0.00029401,-0.03359398,0.06598131,0.05151725,0.00316599,-0.0007
 7572,-0.00063579,0.00082070,0.05597581,0.00814254,-0.03991889,-0.00567
 210,-0.04811116,0.05328335,-0.00404759,-0.02066877,-0.00155564,-0.0008
 8523,-0.00130293,-0.00071405,-0.05236723,0.00426902,-0.01230258,-0.005
 59952,-0.00011528,-0.00185792,0.00131289,-0.00239159,-0.02441462,-0.00
 337836,0.00026447,0.00387677,0.00060716,0.00021433,-0.00132811,-0.0973
 4357,-0.01171987,-0.10023835,0.01111645,0.00218680,0.02254109,0.000942
 12,-0.00045479,0.00083143,0.00022543,0.00017417,0.00083134,0.00040303,
 0.00058222,0.00055259,0.09171436,0.00159252,0.00476851,-0.00174256,0.0
 0200002,0.00107130,0.00195001,-0.00221913,0.00334184,0.00064708,0.0000
 4246,0.00073335,0.00001469,-0.01392778,-0.03057750,-0.02692180,-0.0007
 7340,-0.00550621,-0.00322164,0.00104718,0.00183024,0.00056355,-0.00002
 650,-0.00198679,0.00001677,0.00100508,0.00151385,0.00120158,0.01125955
 ,0.02481141,-0.00044993,-0.00036165,0.00023259,0.00176910,-0.00042124,
 -0.00088667,0.00355564,-0.00199390,-0.00183221,0.00005729,-0.00002507,
 0.00001827,-0.09664209,-0.02401079,-0.29650423,-0.00604417,-0.00037356
 ,-0.02299074,-0.00091200,0.00056272,-0.00080228,-0.00066828,0.00010391
 ,-0.00017100,0.00012868,-0.00097276,0.00037657,0.09920576,0.02749233,0
 .32255972\\-0.00025355,0.00064113,-0.00000132,0.00025639,-0.00035246,0
 .00000005,-0.00000155,-0.00028581,0.00000760,0.00000010,-0.00000021,0.
 00000002,-0.00000367,0.00000024,0.00000077,0.00000291,-0.00000182,-0.0
 0000886,0.00000172,-0.00000094,0.00000195,0.00000012,-0.00000009,0.,-0
 .00000248,-0.00000058,0.00000036,0.,0.00000054,-0.00000057\\\@


 FROM THE ASHES OF OUR DESPAIR GROW THE FLOWERS OF TOMORROW.
 Job cpu time:       0 days  0 hours 17 minutes 25.6 seconds.
 Elapsed time:       0 days  0 hours  1 minutes 27.8 seconds.
 File lengths (MBytes):  RWF=     34 Int=      0 D2E=      0 Chk=     32 Scr=      1
 Normal termination of Gaussian 16 at Fri Jun 10 02:28:37 2022.
