 Entering Gaussian System, Link 0=g16
 Input=ts_zmat_field_N50.gjf
 Output=ts_zmat_field_N50.out
 Initial command:
 /software/gaussian/g16-a03/l1.exe "/local_scratch/11171221/Gau-31700.inp" -scrdir="/local_scratch/11171221/"
 Entering Link 1 = /software/gaussian/g16-a03/l1.exe PID=     31701.
  
 Copyright (c) 1988,1990,1992,1993,1995,1998,2003,2009,2016,
            Gaussian, Inc.  All Rights Reserved.
  
 This is part of the Gaussian(R) 16 program.  It is based on
 the Gaussian(R) 09 system (copyright 2009, Gaussian, Inc.),
 the Gaussian(R) 03 system (copyright 2003, Gaussian, Inc.),
 the Gaussian(R) 98 system (copyright 1998, Gaussian, Inc.),
 the Gaussian(R) 94 system (copyright 1995, Gaussian, Inc.),
 the Gaussian 92(TM) system (copyright 1992, Gaussian, Inc.),
 the Gaussian 90(TM) system (copyright 1990, Gaussian, Inc.),
 the Gaussian 88(TM) system (copyright 1988, Gaussian, Inc.),
 the Gaussian 86(TM) system (copyright 1986, Carnegie Mellon
 University), and the Gaussian 82(TM) system (copyright 1983,
 Carnegie Mellon University). Gaussian is a federally registered
 trademark of Gaussian, Inc.
  
 This software contains proprietary and confidential information,
 including trade secrets, belonging to Gaussian, Inc.
  
 This software is provided under written license and may be
 used, copied, transmitted, or stored only in accord with that
 written license.
  
 The following legend is applicable only to US Government
 contracts under FAR:
  
                    RESTRICTED RIGHTS LEGEND
  
 Use, reproduction and disclosure by the US Government is
 subject to restrictions as set forth in subparagraphs (a)
 and (c) of the Commercial Computer Software - Restricted
 Rights clause in FAR 52.227-19.
  
 Gaussian, Inc.
 340 Quinnipiac St., Bldg. 40, Wallingford CT 06492
  
  
 ---------------------------------------------------------------
 Warning -- This program may not be used in any manner that
 competes with the business of Gaussian, Inc. or will provide
 assistance to any competitor of Gaussian, Inc.  The licensee
 of this program is prohibited from giving any competitor of
 Gaussian, Inc. access to this program.  By using this program,
 the user acknowledges that Gaussian, Inc. is engaged in the
 business of creating and licensing software in the field of
 computational chemistry and represents and warrants to the
 licensee that it is not a competitor of Gaussian, Inc. and that
 it will not use this program in any manner prohibited above.
 ---------------------------------------------------------------
  

 Cite this work as:
 Gaussian 16, Revision A.03,
 M. J. Frisch, G. W. Trucks, H. B. Schlegel, G. E. Scuseria, 
 M. A. Robb, J. R. Cheeseman, G. Scalmani, V. Barone, 
 G. A. Petersson, H. Nakatsuji, X. Li, M. Caricato, A. V. Marenich, 
 J. Bloino, B. G. Janesko, R. Gomperts, B. Mennucci, H. P. Hratchian, 
 J. V. Ortiz, A. F. Izmaylov, J. L. Sonnenberg, D. Williams-Young, 
 F. Ding, F. Lipparini, F. Egidi, J. Goings, B. Peng, A. Petrone, 
 T. Henderson, D. Ranasinghe, V. G. Zakrzewski, J. Gao, N. Rega, 
 G. Zheng, W. Liang, M. Hada, M. Ehara, K. Toyota, R. Fukuda, 
 J. Hasegawa, M. Ishida, T. Nakajima, Y. Honda, O. Kitao, H. Nakai, 
 T. Vreven, K. Throssell, J. A. Montgomery, Jr., J. E. Peralta, 
 F. Ogliaro, M. J. Bearpark, J. J. Heyd, E. N. Brothers, K. N. Kudin, 
 V. N. Staroverov, T. A. Keith, R. Kobayashi, J. Normand, 
 K. Raghavachari, A. P. Rendell, J. C. Burant, S. S. Iyengar, 
 J. Tomasi, M. Cossi, J. M. Millam, M. Klene, C. Adamo, R. Cammi, 
 J. W. Ochterski, R. L. Martin, K. Morokuma, O. Farkas, 
 J. B. Foresman, and D. J. Fox, Gaussian, Inc., Wallingford CT, 2016.
 
 ******************************************
 Gaussian 16:  ES64L-G16RevA.03 25-Dec-2016
                10-Jun-2022 
 ******************************************
 %nprocshared=12
 Will use up to   12 processors via shared memory.
 %chk=checkpoint.chk
 %mem=12GB
 ----------------------------------------------------------------------
 # Opt=(TS, CalcFC, noeigentest, Z-matrix, MaxStep=10) geom=allcheckpoi
 nt guess=read Field=read NoSymm B3LYP/Def2TZVP freq=noraman pop=none
 ----------------------------------------------------------------------
 1/5=1,8=10,10=4,11=1,18=40,26=3,29=7,38=1/1,3;
 2/12=2,15=1,29=3,40=1/2;
 3/5=44,7=101,11=2,14=-6,25=1,30=1,71=2,74=-5,116=-2,140=1/1,2,3;
 4/5=1/1;
 5/5=2,38=6/2;
 8/6=4,10=90,11=11/1;
 11/6=1,8=1,9=11,15=111,16=1,31=1/1,2,10;
 10/6=1,13=1,31=1/2;
 7/10=1,18=20,25=1,30=1/1,2,3,16;
 1/5=1,8=10,10=4,11=1,18=40,26=3/3(2);
 2/15=1,29=3/2;
 99//99;
 2/15=1,29=3/2;
 3/5=44,7=101,11=2,14=-2,25=1,30=1,71=1,74=-5/1,2,3;
 4/5=5,16=3,69=1/1;
 5/5=2,38=5/2;
 7/30=1/1,2,3,16;
 1/5=1,8=10,11=1,18=40,26=3/3(-5);
 2/15=1,29=3/2;
 99/9=1/99;
 Structure from the checkpoint file:  "checkpoint.chk"
 -----------------
 ts_zmat_initalOpt
 -----------------
 Charge =  0 Multiplicity = 1
 Z-Matrix found in chk file.
 C
 C,1,R2
 C,1,R3,2,A3
 H,1,R4,2,A4,3,D4,0
 C,2,R5,1,A5,3,D5,0
 N,3,R6,1,A6,2,D6,0
 H,3,R7,1,A7,6,D7,0
 H,2,R8,1,A8,5,D8,0
 H,3,R9,1,A9,6,D9,0
 H,5,R10,2,A10,1,D10,0
      Variables:
 R2=1.39183525
 R3=1.39946195
 R4=1.07837836
 R5=1.39477085
 R6=1.45579709
 R7=1.07919787
 R8=1.07955097
 R9=1.29148988
 R10=1.07993792
 A3=106.64816306
 A4=127.31880247
 A5=107.56251139
 A6=109.31264331
 A7=129.64863533
 A8=126.30046371
 A9=114.98264004
 A10=127.90136036
 D4=179.78970939
 D5=0.93575146
 D6=1.22539231
 D7=161.6997068
 D8=178.04502089
 D9=-59.31877222
 D10=174.4986148
 Recover connectivity data from disk.

 GradGradGradGradGradGradGradGradGradGradGradGradGradGradGradGradGradGrad
 Berny optimization.
 Initialization pass.
                       ----------------------------
                       !    Initial Parameters    !
                       ! (Angstroms and Degrees)  !
 ----------------------                            ----------------------
 !      Name          Value   Derivative information (Atomic Units)     !
 ------------------------------------------------------------------------
 !       R2          1.3918   calculate D2E/DX2 analytically            !
 !       R3          1.3995   calculate D2E/DX2 analytically            !
 !       R4          1.0784   calculate D2E/DX2 analytically            !
 !       R5          1.3948   calculate D2E/DX2 analytically            !
 !       R6          1.4558   calculate D2E/DX2 analytically            !
 !       R7          1.0792   calculate D2E/DX2 analytically            !
 !       R8          1.0796   calculate D2E/DX2 analytically            !
 !       R9          1.2915   calculate D2E/DX2 analytically            !
 !       R10         1.0799   calculate D2E/DX2 analytically            !
 !       A3        106.6482   calculate D2E/DX2 analytically            !
 !       A4        127.3188   calculate D2E/DX2 analytically            !
 !       A5        107.5625   calculate D2E/DX2 analytically            !
 !       A6        109.3126   calculate D2E/DX2 analytically            !
 !       A7        129.6486   calculate D2E/DX2 analytically            !
 !       A8        126.3005   calculate D2E/DX2 analytically            !
 !       A9        114.9826   calculate D2E/DX2 analytically            !
 !       A10       127.9014   calculate D2E/DX2 analytically            !
 !       D4        179.7897   calculate D2E/DX2 analytically            !
 !       D5          0.9358   calculate D2E/DX2 analytically            !
 !       D6          1.2254   calculate D2E/DX2 analytically            !
 !       D7        161.6997   calculate D2E/DX2 analytically            !
 !       D8        178.045    calculate D2E/DX2 analytically            !
 !       D9        -59.3188   calculate D2E/DX2 analytically            !
 !       D10       174.4986   calculate D2E/DX2 analytically            !
 ------------------------------------------------------------------------
 Trust Radius=1.00D-01 FncErr=1.00D-07 GrdErr=1.00D-06 EigMax=2.50D+02 EigMin=1.00D-04
 Number of steps in this run=     34 maximum allowed number of steps=    100.
 Search for a saddle point of order  1.
 GradGradGradGradGradGradGradGradGradGradGradGradGradGradGradGradGradGrad

 ---------------------------------------------------------------------------------------------------
                            Z-MATRIX (ANGSTROMS AND DEGREES)
   CD    Cent   Atom    N1       Length/X        N2       Alpha/Y        N3        Beta/Z          J
 ---------------------------------------------------------------------------------------------------
      1      1  C 
      2      2  C        1   1.391835(     1)
      3      3  C        1   1.399462(     2)      2  106.648(    10)
      4      4  H        1   1.078378(     3)      2  127.319(    11)      3  179.790(    18)      0
      5      5  C        2   1.394771(     4)      1  107.563(    12)      3    0.936(    19)      0
      6      6  N        3   1.455797(     5)      1  109.313(    13)      2    1.225(    20)      0
      7      7  H        3   1.079198(     6)      1  129.649(    14)      6  161.700(    21)      0
      8      8  H        2   1.079551(     7)      1  126.300(    15)      5  178.045(    22)      0
      9      9  H        3   1.291490(     8)      1  114.983(    16)      6  -59.319(    23)      0
     10     10  H        5   1.079938(     9)      2  127.901(    17)      1  174.499(    24)      0
 ---------------------------------------------------------------------------------------------------
                         Z-Matrix orientation:                         
 ---------------------------------------------------------------------
 Center     Atomic      Atomic             Coordinates (Angstroms)
 Number     Number       Type             X           Y           Z
 ---------------------------------------------------------------------
      1          6           0        0.000000    0.000000    0.000000
      2          6           0        0.000000    0.000000    1.391835
      3          6           0        1.340799    0.000000   -0.400937
      4          1           0       -0.857601   -0.003148   -0.653766
      5          6           0        1.329581    0.021717    1.812702
      6          7           0        2.195600   -0.029381    0.777111
      7          1           0        1.772977   -0.243985   -1.359249
      8          1           0       -0.869898    0.015476    2.030951
      9          1           0        2.040651    0.993779    0.035591
     10          1           0        1.704737    0.109550    2.821567
 ---------------------------------------------------------------------
                    Distance matrix (angstroms):
                    1          2          3          4          5
     1  C    0.000000
     2  C    1.391835   0.000000
     3  C    1.399462   2.238700   0.000000
     4  H    1.078378   2.218102   2.212893   0.000000
     5  C    2.248143   1.394771   2.213774   3.296642   0.000000
     6  N    2.329254   2.280221   1.455797   3.371963   1.350943
     7  H    2.247340   3.281987   1.079198   2.734164   3.213794
     8  H    2.209462   1.079551   3.286564   2.684810   2.210289
     9  H    2.270048   2.644098   1.291490   3.141487   2.146777
    10  H    3.298389   2.227613   3.244840   4.319285   1.079938
                    6          7          8          9         10
     6  N    0.000000
     7  H    2.188310   0.000000
     8  H    3.312310   4.306456   0.000000
     9  H    1.273075   1.883956   3.661944   0.000000
    10  H    2.107142   4.196292   2.694934   2.942170   0.000000
 Symmetry turned off by external request.
 Stoichiometry    C4H5N
 Framework group  C1[X(C4H5N)]
 Deg. of freedom    24
 Full point group                 C1      NOp   1
 Rotational constants (GHZ):           9.2003193           8.8481540           4.5982695
 Standard basis: def2TZVP (5D, 7F)
 The following finite field(s) will be applied:
 An electric field of              0.0039 -0.0009  0.0030
   185 basis functions,   295 primitive gaussians,   210 cartesian basis functions
    18 alpha electrons       18 beta electrons
       nuclear repulsion energy       160.5720996704 Hartrees.
 NAtoms=   10 NActive=   10 NUniq=   10 SFac= 1.00D+00 NAtFMM=   60 NAOKFM=F Big=F
 Integral buffers will be    131072 words long.
 Raffenetti 2 integral format.
 Two-electron integral symmetry is turned off.
 One-electron integrals computed using PRISM.
   1 Symmetry operations used in ECPInt.
 ECPInt:  NShTT=    2850 NPrTT=    8640 LenC2=    2843 LenP2D=    7479.
 LDataN:  DoStor=T MaxTD1= 6 Len=  172
 NBasis=   185 RedAO= T EigKep=  5.71D-05  NBF=   185
 NBsUse=   185 1.00D-06 EigRej= -1.00D+00 NBFU=   185
 The nuclear repulsion energy is now       160.9720950857 hartrees.
 Initial guess from the checkpoint file:  "checkpoint.chk"
 B after Tr=     0.000000   -0.000000   -0.000000
         Rot=    1.000000   -0.000000   -0.000000   -0.000000 Ang=   0.00 deg.
 Keep R1 ints in memory in canonical form, NReq=160464061.
 Requested convergence on RMS density matrix=1.00D-08 within 128 cycles.
 Requested convergence on MAX density matrix=1.00D-06.
 Requested convergence on             energy=1.00D-06.
 No special actions if energy rises.
 SCF Done:  E(RB3LYP) =  -210.179159684     A.U. after   10 cycles
            NFock= 10  Conv=0.30D-08     -V/T= 2.0052
 DoSCS=F DFT=T ScalE2(SS,OS)=  1.000000  1.000000
 Range of M.O.s used for correlation:     1   185
 NBasis=   185 NAE=    18 NBE=    18 NFC=     0 NFV=     0
 NROrb=    185 NOA=    18 NOB=    18 NVA=   167 NVB=   167

 **** Warning!!: The largest alpha MO coefficient is  0.24528076D+02

   1 Symmetry operations used in ECPInt.
 ECPInt:  NShTT=    2850 NPrTT=    8640 LenC2=    2843 LenP2D=    7479.
 LDataN:  DoStor=T MaxTD1= 7 Len=  274
 Symmetrizing basis deriv contribution to polar:
 IMax=3 JMax=2 DiffMx= 0.00D+00
 G2DrvN: will do    11 centers at a time, making    1 passes.
 Calling FoFCou, ICntrl=  3107 FMM=F I1Cent=   0 AccDes= 0.00D+00.
 End of G2Drv F.D. properties file   721 does not exist.
 End of G2Drv F.D. properties file   722 does not exist.
 End of G2Drv F.D. properties file   788 does not exist.
          IDoAtm=1111111111
          Differentiating once with respect to nuclear coordinates.
 Keep R1 ints in memory in canonical form, NReq=160431867.
          There are    33 degrees of freedom in the 1st order CPHF.  IDoFFX=6 NUNeed=     0.
     27 vectors produced by pass  0 Test12= 9.11D-15 3.03D-09 XBig12= 1.03D-01 1.10D-01.
 AX will form    27 AO Fock derivatives at one time.
     27 vectors produced by pass  1 Test12= 9.11D-15 3.03D-09 XBig12= 1.96D-02 5.49D-02.
     27 vectors produced by pass  2 Test12= 9.11D-15 3.03D-09 XBig12= 2.33D-04 2.30D-03.
     27 vectors produced by pass  3 Test12= 9.11D-15 3.03D-09 XBig12= 1.04D-06 1.43D-04.
     27 vectors produced by pass  4 Test12= 9.11D-15 3.03D-09 XBig12= 3.00D-09 8.44D-06.
     25 vectors produced by pass  5 Test12= 9.11D-15 3.03D-09 XBig12= 5.62D-12 3.77D-07.
      6 vectors produced by pass  6 Test12= 9.11D-15 3.03D-09 XBig12= 1.09D-14 1.61D-08.
 InvSVY:  IOpt=1 It=  1 EMax= 1.78D-15
 Solved reduced A of dimension   166 with    27 vectors.
 End of Minotr F.D. properties file   721 does not exist.
 End of Minotr F.D. properties file   722 does not exist.
 End of Minotr F.D. properties file   788 does not exist.
   1 Symmetry operations used in ECPInt.
 ECPInt:  NShTT=    2850 NPrTT=    8640 LenC2=    2843 LenP2D=    7479.
 LDataN:  DoStor=T MaxTD1= 8 Len=  415
 Calling FoFJK, ICntrl=    100147 FMM=F ISym2X=0 I1Cent= 0 IOpClX= 0 NMat=1 NMatS=1 NMatT=0.
 -------------------------------------------------------------------
 Center     Atomic                   Forces (Hartrees/Bohr)
 Number     Number              X              Y              Z
 -------------------------------------------------------------------
      1        6           0.000148954   -0.000239524    0.000005452
      2        6          -0.000085947    0.000159521    0.000109664
      3        6          -0.000319367    0.000066430    0.000018824
      4        1           0.000028464    0.000086048    0.000017265
      5        6          -0.000321515   -0.000316889   -0.000336773
      6        7           0.001297298   -0.000220363    0.000710520
      7        1          -0.000167569    0.000119237   -0.000086623
      8        1          -0.000110226    0.000051255   -0.000201138
      9        1          -0.000447957    0.000112472   -0.000427652
     10        1          -0.000022135    0.000181812    0.000190461
 -------------------------------------------------------------------
 Cartesian Forces:  Max     0.001297298 RMS     0.000334881
 -----------------------------------------------------------------------------------------------
                       Internal Coordinate Forces (Hartree/Bohr or radian)
  Cent   Atom   N1       Length/X         N2         Alpha/Y        N3         Beta/Z          J
 -----------------------------------------------------------------------------------------------
      1  C 
      2  C        1  -0.000238(     1)
      3  C        1   0.000286(     2)      2   0.001491(    10)
      4  H        1  -0.000033(     3)      2   0.000008(    11)      3   0.000139(    18)     0
      5  C        2  -0.000374(     4)      1   0.000079(    12)      3  -0.000274(    19)     0
      6  N        3   0.001341(     5)      1   0.001737(    13)      2  -0.000389(    20)     0
      7  H        3  -0.000017(     6)      1  -0.000331(    14)      6   0.000239(    21)     0
      8  H        2  -0.000030(     7)      1  -0.000465(    15)      5  -0.000081(    22)     0
      9  H        3  -0.000301(     8)      1  -0.000484(    16)      6  -0.001142(    23)     0
     10  H        5   0.000185(     9)      2  -0.000193(    17)      1  -0.000263(    24)     0
 -----------------------------------------------------------------------------------------------
 Internal  Forces:  Max     0.001736851 RMS     0.000636691

 GradGradGradGradGradGradGradGradGradGradGradGradGradGradGradGradGradGrad
 Berny optimization.
 Search for a saddle point.
 Step number   1 out of a maximum of   34
 All quantities printed in internal units (Hartrees-Bohrs-Radians)
 Swapping is turned off.
 Second derivative matrix not updated -- analytic derivatives used.
 ITU=  0
     Eigenvalues ---   -0.26316   0.03393   0.04789   0.05390   0.06325
     Eigenvalues ---    0.12951   0.17280   0.18540   0.19882   0.21520
     Eigenvalues ---    0.24040   0.25004   0.29234   0.35344   0.36163
     Eigenvalues ---    0.36463   0.36812   0.37019   0.40755   0.47598
     Eigenvalues ---    0.59023   1.52608   2.17184  13.96604
 Eigenvectors required to have negative eigenvalues:
                          D9        R9        A9        D7        R6
   1                    0.75386   0.52695   0.20728   0.16067  -0.15363
                          R3        R2        R5        A6        A10
   1                   -0.14907   0.11779  -0.11770   0.08680   0.04222
 RFO step:  Lambda0=5.576373384D-06 Lambda=-1.54219246D-05.
 Linear search not attempted -- option 19 set.
 Variable       Old X    -DE/DX   Delta X   Delta X   Delta X     New X
                                 (Linear)    (Quad)   (Total)
    R2        2.63019  -0.00024   0.00000   0.00046   0.00046   2.63065
    R3        2.64460   0.00029   0.00000  -0.00181  -0.00181   2.64279
    R4        2.03784  -0.00003   0.00000  -0.00008  -0.00008   2.03776
    R5        2.63573  -0.00037   0.00000  -0.00114  -0.00114   2.63459
    R6        2.75106   0.00134   0.00000   0.00310   0.00310   2.75416
    R7        2.03939  -0.00002   0.00000  -0.00012  -0.00012   2.03927
    R8        2.04006  -0.00003   0.00000  -0.00009  -0.00009   2.03996
    R9        2.44056  -0.00030   0.00000   0.00255   0.00255   2.44312
   R10        2.04079   0.00019   0.00000   0.00053   0.00053   2.04132
    A3        1.86136   0.00149   0.00000   0.00017   0.00017   1.86153
    A4        2.22213   0.00001   0.00000   0.00004   0.00004   2.22217
    A5        1.87732   0.00008   0.00000   0.00008   0.00008   1.87740
    A6        1.90787   0.00174   0.00000   0.00110   0.00110   1.90897
    A7        2.26280  -0.00033   0.00000  -0.00027  -0.00027   2.26252
    A8        2.20436  -0.00046   0.00000  -0.00209  -0.00209   2.20227
    A9        2.00683  -0.00048   0.00000  -0.00331  -0.00331   2.00352
   A10        2.23230  -0.00019   0.00000  -0.00131  -0.00131   2.23099
    D4        3.13792   0.00014   0.00000   0.00104   0.00104   3.13896
    D5        0.01633  -0.00027   0.00000   0.00149   0.00149   0.01782
    D6        0.02139  -0.00039   0.00000  -0.00297  -0.00297   0.01842
    D7        2.82219   0.00024   0.00000   0.01068   0.01068   2.83287
    D8        3.10747  -0.00008   0.00000  -0.00267  -0.00267   3.10480
    D9       -1.03531  -0.00114   0.00000   0.00311   0.00311  -1.03219
   D10        3.04558  -0.00026   0.00000  -0.00514  -0.00514   3.04043
         Item               Value     Threshold  Converged?
 Maximum Force            0.001737     0.000450     NO 
 RMS     Force            0.000637     0.000300     NO 
 Maximum Displacement     0.010677     0.001800     NO 
 RMS     Displacement     0.002951     0.001200     NO 
 Predicted change in Energy=-4.922716D-06
 GradGradGradGradGradGradGradGradGradGradGradGradGradGradGradGradGradGrad

 ---------------------------------------------------------------------------------------------------
                            Z-MATRIX (ANGSTROMS AND DEGREES)
   CD    Cent   Atom    N1       Length/X        N2       Alpha/Y        N3        Beta/Z          J
 ---------------------------------------------------------------------------------------------------
      1      1  C 
      2      2  C        1   1.392080(     1)
      3      3  C        1   1.398506(     2)      2  106.658(    10)
      4      4  H        1   1.078335(     3)      2  127.321(    11)      3  179.849(    18)      0
      5      5  C        2   1.394165(     4)      1  107.567(    12)      3    1.021(    19)      0
      6      6  N        3   1.457439(     5)      1  109.376(    13)      2    1.055(    20)      0
      7      7  H        3   1.079134(     6)      1  129.633(    14)      6  162.311(    21)      0
      8      8  H        2   1.079501(     7)      1  126.181(    15)      5  177.892(    22)      0
      9      9  H        3   1.292842(     8)      1  114.793(    16)      6  -59.140(    23)      0
     10     10  H        5   1.080219(     9)      2  127.826(    17)      1  174.204(    24)      0
 ---------------------------------------------------------------------------------------------------
                         Z-Matrix orientation:                         
 ---------------------------------------------------------------------
 Center     Atomic      Atomic             Coordinates (Angstroms)
 Number     Number       Type             X           Y           Z
 ---------------------------------------------------------------------
      1          6           0        0.000000    0.000000    0.000000
      2          6           0        0.000000    0.000000    1.392080
      3          6           0        1.339817    0.000000   -0.400885
      4          1           0       -0.857542   -0.002260   -0.653776
      5          6           0        1.328938    0.023690    1.812865
      6          7           0        2.197100   -0.025318    0.777484
      7          1           0        1.771011   -0.237897   -1.361097
      8          1           0       -0.871172    0.016529    2.029346
      9          1           0        2.037071    0.996259    0.038142
     10          1           0        1.702710    0.116533    2.822096
 ---------------------------------------------------------------------
                    Distance matrix (angstroms):
                    1          2          3          4          5
     1  C    0.000000
     2  C    1.392080   0.000000
     3  C    1.398506   2.238266   0.000000
     4  H    1.078335   2.218313   2.211865   0.000000
     5  C    2.247914   1.394165   2.213903   3.296314   0.000000
     6  N    2.330744   2.281582   1.457439   3.373407   1.352080
     7  H    2.246255   3.282234   1.079134   2.732237   3.215259
     8  H    2.208497   1.079501   3.285540   2.683223   2.210746
     9  H    2.267961   2.641087   1.292842   3.139200   2.144058
    10  H    3.298034   2.226600   3.245439   4.318644   1.080219
                    6          7          8          9         10
     6  N    0.000000
     7  H    2.190952   0.000000
     8  H    3.314092   4.305922   0.000000
     9  H    1.271163   1.884622   3.658230   0.000000
    10  H    2.108312   4.198736   2.695055   2.938727   0.000000
 Symmetry turned off by external request.
 Stoichiometry    C4H5N
 Framework group  C1[X(C4H5N)]
 Deg. of freedom    24
 Full point group                 C1      NOp   1
 Rotational constants (GHZ):           9.2001466           8.8429353           4.5965875
 Standard basis: def2TZVP (5D, 7F)
 The following finite field(s) will be applied:
 An electric field of              0.0039 -0.0009  0.0030
   185 basis functions,   295 primitive gaussians,   210 cartesian basis functions
    18 alpha electrons       18 beta electrons
       nuclear repulsion energy       160.5484804679 Hartrees.
 NAtoms=   10 NActive=   10 NUniq=   10 SFac= 1.00D+00 NAtFMM=   60 NAOKFM=F Big=F
 Integral buffers will be    131072 words long.
 Raffenetti 2 integral format.
 Two-electron integral symmetry is turned off.
 One-electron integrals computed using PRISM.
   1 Symmetry operations used in ECPInt.
 ECPInt:  NShTT=    2850 NPrTT=    8640 LenC2=    2843 LenP2D=    7479.
 LDataN:  DoStor=T MaxTD1= 6 Len=  172
 NBasis=   185 RedAO= T EigKep=  5.70D-05  NBF=   185
 NBsUse=   185 1.00D-06 EigRej= -1.00D+00 NBFU=   185
 The nuclear repulsion energy is now       160.9483433920 hartrees.
 Initial guess from the checkpoint file:  "checkpoint.chk"
 B after Tr=    -0.000287   -0.000322    0.000184
         Rot=    1.000000    0.000199    0.000026   -0.000766 Ang=   0.09 deg.
 Keep R1 ints in memory in canonical form, NReq=160464061.
 Requested convergence on RMS density matrix=1.00D-08 within 128 cycles.
 Requested convergence on MAX density matrix=1.00D-06.
 Requested convergence on             energy=1.00D-06.
 No special actions if energy rises.
 SCF Done:  E(RB3LYP) =  -210.179164608     A.U. after    9 cycles
            NFock=  9  Conv=0.33D-08     -V/T= 2.0052
   1 Symmetry operations used in ECPInt.
 ECPInt:  NShTT=    2850 NPrTT=    8640 LenC2=    2843 LenP2D=    7479.
 LDataN:  DoStor=T MaxTD1= 7 Len=  274
 Calling FoFJK, ICntrl=      2127 FMM=F ISym2X=0 I1Cent= 0 IOpClX= 0 NMat=1 NMatS=1 NMatT=0.
 -------------------------------------------------------------------
 Center     Atomic                   Forces (Hartrees/Bohr)
 Number     Number              X              Y              Z
 -------------------------------------------------------------------
      1        6           0.000179876   -0.000461242    0.000001329
      2        6          -0.000182732    0.000253907   -0.000000082
      3        6           0.000001760    0.000204315   -0.000007391
      4        1          -0.000000101    0.000000212   -0.000000004
      5        6           0.000004121   -0.000000280   -0.000001287
      6        7          -0.000003517    0.000002079    0.000009342
      7        1          -0.000001786    0.000000995   -0.000002051
      8        1          -0.000000157    0.000000099    0.000000009
      9        1           0.000002517    0.000000489   -0.000000269
     10        1           0.000000019   -0.000000574    0.000000404
 -------------------------------------------------------------------
 Cartesian Forces:  Max     0.000461242 RMS     0.000113270
 -----------------------------------------------------------------------------------------------
                       Internal Coordinate Forces (Hartree/Bohr or radian)
  Cent   Atom   N1       Length/X         N2         Alpha/Y        N3         Beta/Z          J
 -----------------------------------------------------------------------------------------------
      1  C 
      2  C        1  -0.000001(     1)
      3  C        1  -0.000001(     2)      2  -0.000014(    10)
      4  H        1   0.000000(     3)      2  -0.000000(    11)      3   0.000000(    18)     0
      5  C        2   0.000004(     4)      1  -0.000005(    12)      3  -0.000003(    19)     0
      6  N        3   0.000005(     5)      1  -0.000023(    13)      2  -0.000003(    20)     0
      7  H        3   0.000001(     6)      1  -0.000004(    14)      6   0.000003(    21)     0
      8  H        2   0.000000(     7)      1  -0.000000(    15)      5  -0.000000(    22)     0
      9  H        3   0.000002(     8)      1   0.000005(    16)      6   0.000000(    23)     0
     10  H        5   0.000000(     9)      2  -0.000000(    17)      1   0.000001(    24)     0
 -----------------------------------------------------------------------------------------------
 Internal  Forces:  Max     0.000022933 RMS     0.000005997

 GradGradGradGradGradGradGradGradGradGradGradGradGradGradGradGradGradGrad
 Berny optimization.
 Search for a saddle point.
 Step number   2 out of a maximum of   34
 All quantities printed in internal units (Hartrees-Bohrs-Radians)
 Swapping is turned off.
 Update second derivatives using D2CorN and points    1    2
 ITU=  0  0
     Eigenvalues ---   -0.26314   0.03396   0.04788   0.05390   0.06326
     Eigenvalues ---    0.12951   0.17281   0.18540   0.19882   0.21518
     Eigenvalues ---    0.24040   0.25003   0.29223   0.35346   0.36163
     Eigenvalues ---    0.36463   0.36812   0.37020   0.40755   0.47599
     Eigenvalues ---    0.59023   1.52607   2.17188  13.96605
 Eigenvectors required to have negative eigenvalues:
                          D9        R9        A9        D7        R6
   1                    0.75387   0.52698   0.20738   0.16064  -0.15353
                          R3        R2        R5        A6        A10
   1                   -0.14900   0.11778  -0.11767   0.08668   0.04222
 RFO step:  Lambda0=3.073818977D-12 Lambda= 0.00000000D+00.
 Linear search not attempted -- option 19 set.
 Variable       Old X    -DE/DX   Delta X   Delta X   Delta X     New X
                                 (Linear)    (Quad)   (Total)
    R2        2.63065  -0.00000   0.00000  -0.00000  -0.00000   2.63065
    R3        2.64279  -0.00000   0.00000   0.00001   0.00001   2.64280
    R4        2.03776   0.00000   0.00000   0.00000   0.00000   2.03776
    R5        2.63459   0.00000   0.00000   0.00001   0.00001   2.63460
    R6        2.75416   0.00001   0.00000   0.00002   0.00002   2.75418
    R7        2.03927   0.00000   0.00000   0.00000   0.00000   2.03927
    R8        2.03996   0.00000   0.00000   0.00000   0.00000   2.03996
    R9        2.44312   0.00000   0.00000   0.00001   0.00001   2.44312
   R10        2.04132   0.00000   0.00000   0.00000   0.00000   2.04132
    A3        1.86153  -0.00001   0.00000   0.00001   0.00001   1.86153
    A4        2.22217  -0.00000   0.00000  -0.00000  -0.00000   2.22217
    A5        1.87740  -0.00001   0.00000   0.00000   0.00000   1.87740
    A6        1.90897  -0.00002   0.00000  -0.00001  -0.00001   1.90895
    A7        2.26252  -0.00000   0.00000  -0.00001  -0.00001   2.26251
    A8        2.20227  -0.00000   0.00000  -0.00000  -0.00000   2.20227
    A9        2.00352   0.00000   0.00000   0.00001   0.00001   2.00353
   A10        2.23099  -0.00000   0.00000  -0.00000  -0.00000   2.23099
    D4        3.13896   0.00000   0.00000   0.00001   0.00001   3.13897
    D5        0.01782  -0.00000   0.00000  -0.00001  -0.00001   0.01782
    D6        0.01842  -0.00000   0.00000   0.00001   0.00001   0.01842
    D7        2.83287   0.00000   0.00000   0.00001   0.00001   2.83288
    D8        3.10480  -0.00000   0.00000   0.00001   0.00001   3.10480
    D9       -1.03219   0.00000   0.00000   0.00000   0.00000  -1.03219
   D10        3.04043   0.00000   0.00000   0.00002   0.00002   3.04045
         Item               Value     Threshold  Converged?
 Maximum Force            0.000023     0.000450     YES
 RMS     Force            0.000006     0.000300     YES
 Maximum Displacement     0.000021     0.001800     YES
 RMS     Displacement     0.000009     0.001200     YES
 Predicted change in Energy=-2.740202D-10
 Optimization completed.
    -- Stationary point found.
                       ----------------------------
                       !   Optimized Parameters   !
                       ! (Angstroms and Degrees)  !
 ----------------------                            ----------------------
 !      Name          Value   Derivative information (Atomic Units)     !
 ------------------------------------------------------------------------
 !       R2          1.3921   -DE/DX =    0.0                           !
 !       R3          1.3985   -DE/DX =    0.0                           !
 !       R4          1.0783   -DE/DX =    0.0                           !
 !       R5          1.3942   -DE/DX =    0.0                           !
 !       R6          1.4574   -DE/DX =    0.0                           !
 !       R7          1.0791   -DE/DX =    0.0                           !
 !       R8          1.0795   -DE/DX =    0.0                           !
 !       R9          1.2928   -DE/DX =    0.0                           !
 !       R10         1.0802   -DE/DX =    0.0                           !
 !       A3        106.6576   -DE/DX =    0.0                           !
 !       A4        127.3212   -DE/DX =    0.0                           !
 !       A5        107.5668   -DE/DX =    0.0                           !
 !       A6        109.3758   -DE/DX =    0.0                           !
 !       A7        129.6331   -DE/DX =    0.0                           !
 !       A8        126.1807   -DE/DX =    0.0                           !
 !       A9        114.7932   -DE/DX =    0.0                           !
 !       A10       127.8264   -DE/DX =    0.0                           !
 !       D4        179.849    -DE/DX =    0.0                           !
 !       D5          1.0213   -DE/DX =    0.0                           !
 !       D6          1.0551   -DE/DX =    0.0                           !
 !       D7        162.3114   -DE/DX =    0.0                           !
 !       D8        177.8918   -DE/DX =    0.0                           !
 !       D9        -59.1404   -DE/DX =    0.0                           !
 !       D10       174.2039   -DE/DX =    0.0                           !
 ------------------------------------------------------------------------
 GradGradGradGradGradGradGradGradGradGradGradGradGradGradGradGradGradGrad

 ---------------------------------------------------------------------------------------------------
                            Z-MATRIX (ANGSTROMS AND DEGREES)
   CD    Cent   Atom    N1       Length/X        N2       Alpha/Y        N3        Beta/Z          J
 ---------------------------------------------------------------------------------------------------
      1      1  C 
      2      2  C        1   1.392080(     1)
      3      3  C        1   1.398506(     2)      2  106.658(    10)
      4      4  H        1   1.078335(     3)      2  127.321(    11)      3  179.849(    18)      0
      5      5  C        2   1.394165(     4)      1  107.567(    12)      3    1.021(    19)      0
      6      6  N        3   1.457439(     5)      1  109.376(    13)      2    1.055(    20)      0
      7      7  H        3   1.079134(     6)      1  129.633(    14)      6  162.311(    21)      0
      8      8  H        2   1.079501(     7)      1  126.181(    15)      5  177.892(    22)      0
      9      9  H        3   1.292842(     8)      1  114.793(    16)      6  -59.140(    23)      0
     10     10  H        5   1.080219(     9)      2  127.826(    17)      1  174.204(    24)      0
 ---------------------------------------------------------------------------------------------------
                         Z-Matrix orientation:                         
 ---------------------------------------------------------------------
 Center     Atomic      Atomic             Coordinates (Angstroms)
 Number     Number       Type             X           Y           Z
 ---------------------------------------------------------------------
      1          6           0        0.000000    0.000000    0.000000
      2          6           0        0.000000    0.000000    1.392080
      3          6           0        1.339817    0.000000   -0.400885
      4          1           0       -0.857542   -0.002260   -0.653776
      5          6           0        1.328938    0.023690    1.812865
      6          7           0        2.197100   -0.025318    0.777484
      7          1           0        1.771011   -0.237897   -1.361097
      8          1           0       -0.871172    0.016529    2.029346
      9          1           0        2.037071    0.996259    0.038142
     10          1           0        1.702710    0.116533    2.822096
 ---------------------------------------------------------------------
                    Distance matrix (angstroms):
                    1          2          3          4          5
     1  C    0.000000
     2  C    1.392080   0.000000
     3  C    1.398506   2.238266   0.000000
     4  H    1.078335   2.218313   2.211865   0.000000
     5  C    2.247914   1.394165   2.213903   3.296314   0.000000
     6  N    2.330744   2.281582   1.457439   3.373407   1.352080
     7  H    2.246255   3.282234   1.079134   2.732237   3.215259
     8  H    2.208497   1.079501   3.285540   2.683223   2.210746
     9  H    2.267961   2.641087   1.292842   3.139200   2.144058
    10  H    3.298034   2.226600   3.245439   4.318644   1.080219
                    6          7          8          9         10
     6  N    0.000000
     7  H    2.190952   0.000000
     8  H    3.314092   4.305922   0.000000
     9  H    1.271163   1.884622   3.658230   0.000000
    10  H    2.108312   4.198736   2.695055   2.938727   0.000000
 Symmetry turned off by external request.
 Stoichiometry    C4H5N
 Framework group  C1[X(C4H5N)]
 Deg. of freedom    24
 Full point group                 C1      NOp   1
 Rotational constants (GHZ):           9.2001466           8.8429353           4.5965875
 1\1\GINC-BHC0105\FTS\RB3LYP\def2TZVP\C4H5N1\DHANAWAY\10-Jun-2022\1\\# 
 Opt=(TS, CalcFC, noeigentest, Z-matrix, MaxStep=10) geom=allcheckpoint
  guess=read Field=read NoSymm B3LYP/Def2TZVP freq=noraman pop=none\\ts
 _zmat_initalOpt\\0,1\C\C,1,R2\C,1,R3,2,A3\H,1,R4,2,A4,3,D4,0\C,2,R5,1,
 A5,3,D5,0\N,3,R6,1,A6,2,D6,0\H,3,R7,1,A7,6,D7,0\H,2,R8,1,A8,5,D8,0\H,3
 ,R9,1,A9,6,D9,0\H,5,R10,2,A10,1,D10,0\\R2=1.3920801\R3=1.39850598\R4=1
 .07833536\R5=1.39416524\R6=1.45743879\R7=1.07913381\R8=1.07950088\R9=1
 .29284171\R10=1.08021895\A3=106.65764983\A4=127.32120408\A5=107.566843
 4\A6=109.37580981\A7=129.63306248\A8=126.18071772\A9=114.7931752\A10=1
 27.8263789\D4=179.84901642\D5=1.02125734\D6=1.05511932\D7=162.31144617
 \D8=177.89176985\D9=-59.14037366\D10=174.20392578\\Version=ES64L-G16Re
 vA.03\HF=-210.1791646\RMSD=3.289e-09\RMSF=1.133e-04\Dipole=-0.6919036,
 0.2957975,-0.4026293\PG=C01 [X(C4H5N1)]\\@


 In the beginning the Universe was created.
 This has made a lot of people very angry
 and been widely regarded as a bad move.
                               -D.Adams
 Job cpu time:       0 days  0 hours 20 minutes 13.4 seconds.
 Elapsed time:       0 days  0 hours  1 minutes 46.3 seconds.
 File lengths (MBytes):  RWF=     34 Int=      0 D2E=      0 Chk=     32 Scr=      1
 Normal termination of Gaussian 16 at Fri Jun 10 02:16:10 2022.
 Link1:  Proceeding to internal job step number  2.
 --------------------------------------------------------------------
 #N Geom=AllCheck Guess=TCheck SCRF=Check GenChk RB3LYP/def2TZVP Freq
 --------------------------------------------------------------------
 1/5=1,8=10,10=4,11=1,29=7,30=1,38=1,40=1/1,3;
 2/12=2,15=1,40=1/2;
 3/5=44,7=101,11=2,14=-4,25=1,30=1,70=2,71=2,74=-5,116=1,140=1/1,2,3;
 4/5=101/1;
 5/5=2,38=6,98=1/2;
 8/6=4,10=90,11=11/1;
 11/6=1,8=1,9=11,15=111,16=1,31=1/1,2,10;
 10/6=1,31=1/2;
 7/8=1,10=1,25=1,30=1/1,2,3,16;
 1/5=1,8=10,10=4,11=1,30=1/3;
 99//99;
 Structure from the checkpoint file:  "checkpoint.chk"
 -----------------
 ts_zmat_initalOpt
 -----------------
 Charge =  0 Multiplicity = 1
 Z-Matrix found in chk file.
 C
 C,1,R2
 C,1,R3,2,A3
 H,1,R4,2,A4,3,D4,0
 C,2,R5,1,A5,3,D5,0
 N,3,R6,1,A6,2,D6,0
 H,3,R7,1,A7,6,D7,0
 H,2,R8,1,A8,5,D8,0
 H,3,R9,1,A9,6,D9,0
 H,5,R10,2,A10,1,D10,0
      Variables:
 R2=1.3920801
 R3=1.39850598
 R4=1.07833536
 R5=1.39416524
 R6=1.45743879
 R7=1.07913381
 R8=1.07950088
 R9=1.29284171
 R10=1.08021895
 A3=106.65764983
 A4=127.32120408
 A5=107.5668434
 A6=109.37580981
 A7=129.63306248
 A8=126.18071772
 A9=114.7931752
 A10=127.8263789
 D4=179.84901642
 D5=1.02125734
 D6=1.05511932
 D7=162.31144617
 D8=177.89176985
 D9=-59.14037366
 D10=174.20392578
 Recover connectivity data from disk.

 GradGradGradGradGradGradGradGradGradGradGradGradGradGradGradGradGradGrad
 Berny optimization.
 Initialization pass.
                       ----------------------------
                       !    Initial Parameters    !
                       ! (Angstroms and Degrees)  !
 ----------------------                            ----------------------
 !      Name          Value   Derivative information (Atomic Units)     !
 ------------------------------------------------------------------------
 !       R2          1.3921   calculate D2E/DX2 analytically            !
 !       R3          1.3985   calculate D2E/DX2 analytically            !
 !       R4          1.0783   calculate D2E/DX2 analytically            !
 !       R5          1.3942   calculate D2E/DX2 analytically            !
 !       R6          1.4574   calculate D2E/DX2 analytically            !
 !       R7          1.0791   calculate D2E/DX2 analytically            !
 !       R8          1.0795   calculate D2E/DX2 analytically            !
 !       R9          1.2928   calculate D2E/DX2 analytically            !
 !       R10         1.0802   calculate D2E/DX2 analytically            !
 !       A3        106.6576   calculate D2E/DX2 analytically            !
 !       A4        127.3212   calculate D2E/DX2 analytically            !
 !       A5        107.5668   calculate D2E/DX2 analytically            !
 !       A6        109.3758   calculate D2E/DX2 analytically            !
 !       A7        129.6331   calculate D2E/DX2 analytically            !
 !       A8        126.1807   calculate D2E/DX2 analytically            !
 !       A9        114.7932   calculate D2E/DX2 analytically            !
 !       A10       127.8264   calculate D2E/DX2 analytically            !
 !       D4        179.849    calculate D2E/DX2 analytically            !
 !       D5          1.0213   calculate D2E/DX2 analytically            !
 !       D6          1.0551   calculate D2E/DX2 analytically            !
 !       D7        162.3114   calculate D2E/DX2 analytically            !
 !       D8        177.8918   calculate D2E/DX2 analytically            !
 !       D9        -59.1404   calculate D2E/DX2 analytically            !
 !       D10       174.2039   calculate D2E/DX2 analytically            !
 ------------------------------------------------------------------------
 Trust Radius=1.00D-01 FncErr=1.00D-07 GrdErr=1.00D-07 EigMax=2.50D+02 EigMin=1.00D-04
 Number of steps in this run=      2 maximum allowed number of steps=      2.
 Search for a saddle point of order  1.
 GradGradGradGradGradGradGradGradGradGradGradGradGradGradGradGradGradGrad

                          Input orientation:                          
 ---------------------------------------------------------------------
 Center     Atomic      Atomic             Coordinates (Angstroms)
 Number     Number       Type             X           Y           Z
 ---------------------------------------------------------------------
      1          6           0        0.000000    0.000000    0.000000
      2          6           0        0.000000    0.000000    1.392080
      3          6           0        1.339817    0.000000   -0.400885
      4          1           0       -0.857542   -0.002260   -0.653776
      5          6           0        1.328938    0.023690    1.812865
      6          7           0        2.197100   -0.025318    0.777484
      7          1           0        1.771011   -0.237897   -1.361097
      8          1           0       -0.871172    0.016529    2.029346
      9          1           0        2.037071    0.996259    0.038142
     10          1           0        1.702710    0.116533    2.822096
 ---------------------------------------------------------------------
                    Distance matrix (angstroms):
                    1          2          3          4          5
     1  C    0.000000
     2  C    1.392080   0.000000
     3  C    1.398506   2.238266   0.000000
     4  H    1.078335   2.218313   2.211865   0.000000
     5  C    2.247914   1.394165   2.213903   3.296314   0.000000
     6  N    2.330744   2.281582   1.457439   3.373407   1.352080
     7  H    2.246255   3.282234   1.079134   2.732237   3.215259
     8  H    2.208497   1.079501   3.285540   2.683223   2.210746
     9  H    2.267961   2.641087   1.292842   3.139200   2.144058
    10  H    3.298034   2.226600   3.245439   4.318644   1.080219
                    6          7          8          9         10
     6  N    0.000000
     7  H    2.190952   0.000000
     8  H    3.314092   4.305922   0.000000
     9  H    1.271163   1.884622   3.658230   0.000000
    10  H    2.108312   4.198736   2.695055   2.938727   0.000000
 Symmetry turned off by external request.
 Stoichiometry    C4H5N
 Framework group  C1[X(C4H5N)]
 Deg. of freedom    24
 Full point group                 C1      NOp   1
 Rotational constants (GHZ):           9.2001466           8.8429353           4.5965875
 Standard basis: def2TZVP (5D, 7F)
 The following finite field(s) will be applied:
 An electric field of              0.0039 -0.0009  0.0030
   185 basis functions,   295 primitive gaussians,   210 cartesian basis functions
    18 alpha electrons       18 beta electrons
       nuclear repulsion energy       160.5484804679 Hartrees.
 NAtoms=   10 NActive=   10 NUniq=   10 SFac= 1.00D+00 NAtFMM=   60 NAOKFM=F Big=F
 Integral buffers will be    131072 words long.
 Raffenetti 2 integral format.
 Two-electron integral symmetry is turned off.
 One-electron integrals computed using PRISM.
   1 Symmetry operations used in ECPInt.
 ECPInt:  NShTT=    2850 NPrTT=    8640 LenC2=    2843 LenP2D=    7479.
 LDataN:  DoStor=T MaxTD1= 6 Len=  172
 NBasis=   185 RedAO= T EigKep=  5.70D-05  NBF=   185
 NBsUse=   185 1.00D-06 EigRej= -1.00D+00 NBFU=   185
 The nuclear repulsion energy is now       160.9483433920 hartrees.
 Initial guess from the checkpoint file:  "checkpoint.chk"
 B after Tr=     0.000000    0.000000    0.000000
         Rot=    1.000000    0.000000    0.000000    0.000000 Ang=   0.00 deg.
 Keep R1 ints in memory in canonical form, NReq=160464061.
 Requested convergence on RMS density matrix=1.00D-08 within 128 cycles.
 Requested convergence on MAX density matrix=1.00D-06.
 Requested convergence on             energy=1.00D-06.
 No special actions if energy rises.
 SCF Done:  E(RB3LYP) =  -210.179164608     A.U. after    1 cycles
            NFock=  1  Conv=0.16D-08     -V/T= 2.0052
 DoSCS=F DFT=T ScalE2(SS,OS)=  1.000000  1.000000
 Range of M.O.s used for correlation:     1   185
 NBasis=   185 NAE=    18 NBE=    18 NFC=     0 NFV=     0
 NROrb=    185 NOA=    18 NOB=    18 NVA=   167 NVB=   167

 **** Warning!!: The largest alpha MO coefficient is  0.24559327D+02

   1 Symmetry operations used in ECPInt.
 ECPInt:  NShTT=    2850 NPrTT=    8640 LenC2=    2843 LenP2D=    7479.
 LDataN:  DoStor=T MaxTD1= 7 Len=  274
 Symmetrizing basis deriv contribution to polar:
 IMax=3 JMax=2 DiffMx= 0.00D+00
 G2DrvN: will do    11 centers at a time, making    1 passes.
 Calling FoFCou, ICntrl=  3107 FMM=F I1Cent=   0 AccDes= 0.00D+00.
 End of G2Drv F.D. properties file   721 does not exist.
 End of G2Drv F.D. properties file   722 does not exist.
 End of G2Drv F.D. properties file   788 does not exist.
          IDoAtm=1111111111
          Differentiating once with respect to electric field.
                with respect to dipole field.
          Differentiating once with respect to nuclear coordinates.
 Keep R1 ints in memory in canonical form, NReq=160431867.
          There are    33 degrees of freedom in the 1st order CPHF.  IDoFFX=6 NUNeed=     3.
     30 vectors produced by pass  0 Test12= 9.11D-15 3.03D-09 XBig12= 6.35D+01 4.68D+00.
 AX will form    30 AO Fock derivatives at one time.
     30 vectors produced by pass  1 Test12= 9.11D-15 3.03D-09 XBig12= 1.58D+01 7.10D-01.
     30 vectors produced by pass  2 Test12= 9.11D-15 3.03D-09 XBig12= 1.43D-01 7.96D-02.
     30 vectors produced by pass  3 Test12= 9.11D-15 3.03D-09 XBig12= 6.15D-04 3.68D-03.
     30 vectors produced by pass  4 Test12= 9.11D-15 3.03D-09 XBig12= 1.21D-06 1.31D-04.
     24 vectors produced by pass  5 Test12= 9.11D-15 3.03D-09 XBig12= 2.87D-09 6.49D-06.
      6 vectors produced by pass  6 Test12= 9.11D-15 3.03D-09 XBig12= 4.07D-12 2.91D-07.
      2 vectors produced by pass  7 Test12= 9.11D-15 3.03D-09 XBig12= 4.06D-15 9.62D-09.
 InvSVY:  IOpt=1 It=  1 EMax= 2.66D-15
 Solved reduced A of dimension   182 with    33 vectors.
 Isotropic polarizability for W=    0.000000       50.47 Bohr**3.
 End of Minotr F.D. properties file   721 does not exist.
 End of Minotr F.D. properties file   722 does not exist.
 End of Minotr F.D. properties file   788 does not exist.
   1 Symmetry operations used in ECPInt.
 ECPInt:  NShTT=    2850 NPrTT=    8640 LenC2=    2843 LenP2D=    7479.
 LDataN:  DoStor=T MaxTD1= 8 Len=  415
 Calling FoFJK, ICntrl=    100127 FMM=F ISym2X=0 I1Cent= 0 IOpClX= 0 NMat=1 NMatS=1 NMatT=0.
 Full mass-weighted force constant matrix:
 Low frequencies ----1490.6532   -7.9401   -0.0007   -0.0007   -0.0006   12.0990
 Low frequencies ---   21.2678  589.1335  639.2044
 ******    1 imaginary frequencies (negative Signs) ****** 
 Diagonal vibrational polarizability:
        3.1671613       5.2150493       1.2284097
 Harmonic frequencies (cm**-1), IR intensities (KM/Mole), Raman scattering
 activities (A**4/AMU), depolarization ratios for plane and unpolarized
 incident light, reduced masses (AMU), force constants (mDyne/A),
 and normal coordinates:
                      1                      2                      3
                      A                      A                      A
 Frequencies --  -1490.6525               589.1332               639.2041
 Red. masses --      1.2132                 2.2350                 3.8638
 Frc consts  --      1.5883                 0.4570                 0.9301
 IR Inten    --    103.6289                 2.4342                 3.4951
  Atom  AN      X      Y      Z        X      Y      Z        X      Y      Z
     1   6     0.02  -0.00  -0.03     0.00  -0.19  -0.01    -0.00   0.16  -0.01
     2   6     0.02   0.00   0.02     0.00   0.22   0.00     0.00  -0.01  -0.00
     3   6    -0.06  -0.06  -0.01     0.00   0.05  -0.00    -0.00  -0.31   0.02
     4   1     0.01  -0.00  -0.01    -0.00  -0.29  -0.00     0.01   0.53  -0.03
     5   6    -0.04   0.01   0.02     0.00  -0.15   0.01    -0.01  -0.19   0.01
     6   7    -0.00   0.05  -0.06     0.01   0.04  -0.01     0.03   0.30  -0.01
     7   1     0.01   0.16  -0.03     0.09   0.40  -0.05     0.05  -0.33   0.05
     8   1     0.01  -0.01   0.01     0.00   0.56  -0.01     0.01   0.13   0.00
     9   1     0.61  -0.15   0.75    -0.34   0.15   0.22    -0.43   0.08  -0.13
    10   1    -0.00  -0.01   0.00     0.02  -0.36   0.02    -0.03  -0.37   0.03
                      4                      5                      6
                      A                      A                      A
 Frequencies --    753.0698               840.6788               872.4078
 Red. masses --      1.1259                 1.4292                 2.3477
 Frc consts  --      0.3762                 0.5951                 1.0528
 IR Inten    --     92.4461                 5.3258                16.3621
  Atom  AN      X      Y      Z        X      Y      Z        X      Y      Z
     1   6    -0.01  -0.03  -0.01    -0.03   0.04  -0.00    -0.13   0.08  -0.06
     2   6     0.01  -0.08  -0.00    -0.01   0.00  -0.02     0.01   0.04  -0.07
     3   6    -0.01  -0.03  -0.01    -0.02   0.06   0.01    -0.08  -0.09   0.12
     4   1    -0.02   0.55   0.00    -0.01  -0.34  -0.03    -0.05  -0.47  -0.18
     5   6    -0.00   0.02  -0.00     0.00  -0.16  -0.01     0.02   0.04  -0.06
     6   7     0.03  -0.03   0.01     0.06   0.04   0.01     0.20  -0.03   0.06
     7   1     0.02   0.44  -0.11    -0.12  -0.37   0.08    -0.18   0.57  -0.08
     8   1     0.02   0.37  -0.00     0.03   0.24   0.04     0.14  -0.38   0.11
     9   1    -0.28   0.03   0.15     0.17  -0.01   0.04    -0.21  -0.03   0.08
    10   1    -0.04   0.49  -0.03    -0.13   0.76  -0.05    -0.20  -0.06   0.03
                      7                      8                      9
                      A                      A                      A
 Frequencies --    881.8130               891.1096               941.3618
 Red. masses --      2.0893                 3.4232                 1.7578
 Frc consts  --      0.9572                 1.6016                 0.9178
 IR Inten    --      7.2734                 5.0423                 9.0121
  Atom  AN      X      Y      Z        X      Y      Z        X      Y      Z
     1   6     0.15   0.10   0.10    -0.03   0.09  -0.13     0.04   0.09   0.02
     2   6    -0.10   0.04   0.10     0.23   0.02  -0.10     0.01  -0.13   0.02
     3   6     0.09  -0.08  -0.06    -0.05  -0.05  -0.06    -0.04  -0.00  -0.16
     4   1     0.22  -0.46   0.02    -0.24  -0.38   0.15    -0.08  -0.48   0.17
     5   6    -0.06  -0.04  -0.03     0.10  -0.03   0.23    -0.04   0.07   0.03
     6   7    -0.05  -0.02  -0.07    -0.21  -0.02   0.04     0.05  -0.00   0.07
     7   1    -0.02   0.45  -0.24     0.28   0.22   0.02    -0.10  -0.04  -0.18
     8   1    -0.20  -0.32  -0.02     0.10  -0.25  -0.27    -0.02   0.68  -0.04
     9   1    -0.29   0.05   0.02    -0.33   0.04   0.08    -0.10  -0.06   0.04
    10   1     0.11   0.36  -0.13     0.19   0.34   0.17    -0.12  -0.34   0.10
                     10                     11                     12
                      A                      A                      A
 Frequencies --    954.3153              1067.1074              1091.9220
 Red. masses --      2.2427                 1.3739                 1.2432
 Frc consts  --      1.2034                 0.9218                 0.8733
 IR Inten    --     30.7545                10.9020                 1.2089
  Atom  AN      X      Y      Z        X      Y      Z        X      Y      Z
     1   6    -0.02   0.07  -0.03    -0.06   0.02  -0.01    -0.06   0.01   0.07
     2   6    -0.01  -0.11  -0.01     0.03   0.01   0.05    -0.04  -0.01  -0.06
     3   6     0.05  -0.01   0.23     0.08  -0.01  -0.05     0.05  -0.02   0.04
     4   1     0.23  -0.36  -0.35    -0.21  -0.05   0.18    -0.43  -0.06   0.56
     5   6     0.05   0.04  -0.05    -0.05  -0.00  -0.10     0.02  -0.01  -0.04
     6   7    -0.11  -0.01  -0.11    -0.04  -0.00   0.03     0.03   0.01  -0.01
     7   1     0.16   0.11   0.26     0.53   0.04   0.13     0.30   0.18   0.10
     8   1     0.08   0.60   0.10     0.43  -0.04   0.59    -0.30   0.07  -0.41
     9   1     0.01   0.10  -0.01     0.01  -0.00   0.06     0.23  -0.04  -0.09
    10   1     0.25  -0.11  -0.12    -0.23   0.02  -0.04     0.11   0.01  -0.08
                     13                     14                     15
                      A                      A                      A
 Frequencies --   1135.5868              1175.4028              1250.6396
 Red. masses --      2.2024                 1.1453                 1.7653
 Frc consts  --      1.6734                 0.9323                 1.6268
 IR Inten    --      2.1942                24.7755                 1.7124
  Atom  AN      X      Y      Z        X      Y      Z        X      Y      Z
     1   6    -0.13   0.01  -0.11     0.01   0.02   0.00     0.05  -0.00   0.01
     2   6    -0.17  -0.01   0.11     0.00  -0.00   0.01     0.02   0.00  -0.07
     3   6     0.02  -0.00  -0.12    -0.02   0.03   0.01    -0.03  -0.00   0.01
     4   1     0.04  -0.01  -0.36    -0.05  -0.01   0.08    -0.05   0.01   0.14
     5   6     0.10  -0.00   0.09    -0.01   0.04  -0.02     0.00  -0.01  -0.15
     6   7     0.07   0.00   0.05     0.05  -0.05  -0.05    -0.06   0.02   0.17
     7   1     0.44   0.00   0.05     0.22  -0.42   0.24    -0.34  -0.08  -0.10
     8   1    -0.20  -0.01   0.11    -0.12  -0.11  -0.16     0.14  -0.02   0.07
     9   1     0.06  -0.06   0.03    -0.54   0.18   0.57    -0.06  -0.02   0.28
    10   1     0.70   0.04  -0.12     0.01  -0.01  -0.03     0.71  -0.01  -0.42
                     16                     17                     18
                      A                      A                      A
 Frequencies --   1312.1764              1431.9010              1483.1625
 Red. masses --      1.8360                 2.8745                 3.1534
 Frc consts  --      1.8626                 3.4725                 4.0871
 IR Inten    --      2.3668                 7.8100                 3.2633
  Atom  AN      X      Y      Z        X      Y      Z        X      Y      Z
     1   6     0.02   0.00   0.11    -0.16   0.01   0.16    -0.13  -0.00  -0.15
     2   6     0.05   0.01   0.02    -0.08  -0.00  -0.12     0.18   0.00   0.28
     3   6    -0.15  -0.00  -0.05     0.19  -0.03  -0.07     0.14   0.00   0.02
     4   1     0.41   0.00  -0.38     0.14  -0.01  -0.26    -0.16  -0.00  -0.17
     5   6     0.07  -0.01  -0.13     0.21   0.02  -0.02    -0.04  -0.01  -0.13
     6   7    -0.04   0.01   0.09    -0.09   0.01   0.03    -0.04   0.00   0.05
     7   1     0.54   0.11   0.24    -0.36  -0.12  -0.32    -0.36  -0.05  -0.20
     8   1    -0.19  -0.02  -0.34    -0.00  -0.00  -0.01    -0.45   0.00  -0.56
     9   1     0.08  -0.16  -0.07    -0.01   0.15   0.51     0.02   0.08   0.03
    10   1    -0.25   0.00  -0.02    -0.40  -0.05   0.23    -0.21  -0.01  -0.09
                     19                     20                     21
                      A                      A                      A
 Frequencies --   1511.0365              2181.6059              3208.1078
 Red. masses --      3.5546                 1.0724                 1.0895
 Frc consts  --      4.7818                 3.0072                 6.6068
 IR Inten    --      1.6344                13.8914                 9.0157
  Atom  AN      X      Y      Z        X      Y      Z        X      Y      Z
     1   6     0.18  -0.00  -0.21     0.01   0.00   0.00     0.01   0.00   0.00
     2   6    -0.19   0.00   0.09     0.00  -0.00   0.00    -0.03   0.00   0.02
     3   6    -0.10  -0.00   0.05    -0.04  -0.04  -0.02     0.00  -0.00  -0.00
     4   1    -0.32  -0.00   0.45     0.01   0.00   0.00    -0.08  -0.00  -0.06
     5   6     0.28   0.00  -0.08    -0.01   0.00  -0.00    -0.03  -0.01  -0.07
     6   7    -0.07   0.00   0.05     0.01  -0.03   0.02    -0.00   0.00  -0.00
     7   1    -0.13   0.02   0.06     0.04   0.00  -0.01    -0.03   0.02   0.07
     8   1    -0.15  -0.01   0.22     0.00   0.01   0.00     0.35  -0.01  -0.26
     9   1    -0.04  -0.00   0.07     0.26   0.96  -0.06     0.00   0.00   0.00
    10   1    -0.55  -0.01   0.25     0.01   0.01  -0.01     0.31   0.07   0.83
                     22                     23                     24
                      A                      A                      A
 Frequencies --   3227.5241              3231.6059              3249.8797
 Red. masses --      1.0935                 1.0943                 1.1041
 Frc consts  --      6.7111                 6.7332                 6.8704
 IR Inten    --      5.1452                 2.1288                 0.4038
  Atom  AN      X      Y      Z        X      Y      Z        X      Y      Z
     1   6     0.03   0.00   0.03     0.01  -0.00   0.01    -0.06  -0.00  -0.05
     2   6    -0.05   0.00   0.03     0.04  -0.00  -0.03    -0.02   0.00   0.02
     3   6     0.02  -0.01  -0.03     0.03  -0.01  -0.06     0.02  -0.01  -0.03
     4   1    -0.41  -0.00  -0.31    -0.12  -0.00  -0.10     0.67   0.00   0.51
     5   6     0.01   0.00   0.03    -0.01  -0.00  -0.01     0.01   0.00   0.01
     6   7     0.00  -0.00  -0.00    -0.00  -0.00   0.00     0.00  -0.00   0.00
     7   1    -0.18   0.10   0.39    -0.32   0.17   0.70    -0.17   0.09   0.37
     8   1     0.50  -0.01  -0.36    -0.46   0.01   0.33     0.26  -0.00  -0.19
     9   1     0.00   0.01  -0.01     0.00   0.01  -0.00     0.00   0.00  -0.00
    10   1    -0.14  -0.03  -0.36     0.07   0.02   0.17    -0.04  -0.01  -0.10

 -------------------
 - Thermochemistry -
 -------------------
 Temperature   298.150 Kelvin.  Pressure   1.00000 Atm.
 Atom     1 has atomic number  6 and mass  12.00000
 Atom     2 has atomic number  6 and mass  12.00000
 Atom     3 has atomic number  6 and mass  12.00000
 Atom     4 has atomic number  1 and mass   1.00783
 Atom     5 has atomic number  6 and mass  12.00000
 Atom     6 has atomic number  7 and mass  14.00307
 Atom     7 has atomic number  1 and mass   1.00783
 Atom     8 has atomic number  1 and mass   1.00783
 Atom     9 has atomic number  1 and mass   1.00783
 Atom    10 has atomic number  1 and mass   1.00783
 Molecular mass:    67.04220 amu.
 Principal axes and moments of inertia in atomic units:
                           1         2         3
     Eigenvalues --   196.16440 204.08848 392.62631
           X            0.96755  -0.25244  -0.01062
           Y            0.01209   0.00428   0.99992
           Z            0.25237   0.96760  -0.00720
 This molecule is an asymmetric top.
 Rotational symmetry number  1.
 Rotational temperatures (Kelvin)      0.44154     0.42439     0.22060
 Rotational constants (GHZ):           9.20015     8.84294     4.59659
    1 imaginary frequencies ignored.
 Zero-point vibrational energy     202891.2 (Joules/Mol)
                                   48.49215 (Kcal/Mol)
 Warning -- explicit consideration of   1 degrees of freedom as
           vibrations may cause significant error
 Vibrational temperatures:    847.63   919.67  1083.50  1209.55  1255.20
          (Kelvin)           1268.73  1282.11  1354.41  1373.05  1535.33
                             1571.03  1633.86  1691.14  1799.39  1887.93
                             2060.19  2133.94  2174.04  3138.84  4615.75
                             4643.69  4649.56  4675.85
 
 Zero-point correction=                           0.077277 (Hartree/Particle)
 Thermal correction to Energy=                    0.080975
 Thermal correction to Enthalpy=                  0.081919
 Thermal correction to Gibbs Free Energy=         0.050992
 Sum of electronic and zero-point Energies=           -210.101887
 Sum of electronic and thermal Energies=              -210.098190
 Sum of electronic and thermal Enthalpies=            -210.097246
 Sum of electronic and thermal Free Energies=         -210.128172
 
                     E (Thermal)             CV                S
                      KCal/Mol        Cal/Mol-Kelvin    Cal/Mol-Kelvin
 Total                   50.813             13.374             65.091
 Electronic               0.000              0.000              0.000
 Translational            0.889              2.981             38.526
 Rotational               0.889              2.981             24.267
 Vibrational             49.035              7.412              2.298
 Vibration     1          0.946              1.055              0.469
                       Q            Log10(Q)             Ln(Q)
 Total Bot       0.350964D-23        -23.454737        -54.006528
 Total V=0       0.123100D+13         12.090257         27.838845
 Vib (Bot)       0.362436D-35        -35.440768        -81.605384
 Vib (Bot)    1  0.256285D+00         -0.591277         -1.361467
 Vib (V=0)       0.127124D+01          0.104226          0.239989
 Vib (V=0)    1  0.106186D+01          0.026066          0.060018
 Electronic      0.100000D+01          0.000000          0.000000
 Translational   0.215763D+08          7.333976         16.887104
 Rotational      0.448802D+05          4.652055         10.711752
 -------------------------------------------------------------------
 Center     Atomic                   Forces (Hartrees/Bohr)
 Number     Number              X              Y              Z
 -------------------------------------------------------------------
      1        6           0.000179854   -0.000461243    0.000001336
      2        6          -0.000182791    0.000253916   -0.000000055
      3        6           0.000001787    0.000204308   -0.000007403
      4        1          -0.000000098    0.000000210   -0.000000007
      5        6           0.000004070   -0.000000287   -0.000001246
      6        7          -0.000003464    0.000002068    0.000009270
      7        1          -0.000001783    0.000000997   -0.000002051
      8        1          -0.000000128    0.000000097   -0.000000007
      9        1           0.000002522    0.000000507   -0.000000266
     10        1           0.000000032   -0.000000573    0.000000429
 -------------------------------------------------------------------
 Cartesian Forces:  Max     0.000461243 RMS     0.000113272
 -----------------------------------------------------------------------------------------------
                       Internal Coordinate Forces (Hartree/Bohr or radian)
  Cent   Atom   N1       Length/X         N2         Alpha/Y        N3         Beta/Z          J
 -----------------------------------------------------------------------------------------------
      1  C 
      2  C        1  -0.000001(     1)
      3  C        1  -0.000001(     2)      2  -0.000014(    10)
      4  H        1   0.000000(     3)      2  -0.000000(    11)      3   0.000000(    18)     0
      5  C        2   0.000004(     4)      1  -0.000005(    12)      3  -0.000003(    19)     0
      6  N        3   0.000005(     5)      1  -0.000023(    13)      2  -0.000003(    20)     0
      7  H        3   0.000001(     6)      1  -0.000004(    14)      6   0.000003(    21)     0
      8  H        2   0.000000(     7)      1  -0.000000(    15)      5  -0.000000(    22)     0
      9  H        3   0.000002(     8)      1   0.000005(    16)      6   0.000000(    23)     0
     10  H        5   0.000000(     9)      2  -0.000000(    17)      1   0.000001(    24)     0
 -----------------------------------------------------------------------------------------------
 Internal  Forces:  Max     0.000022698 RMS     0.000005914

 GradGradGradGradGradGradGradGradGradGradGradGradGradGradGradGradGradGrad
 Berny optimization.
 Search for a saddle point.
 Step number   1 out of a maximum of    2
 All quantities printed in internal units (Hartrees-Bohrs-Radians)
 Swapping is turned off.
 Second derivative matrix not updated -- analytic derivatives used.
 ITU=  0
     Eigenvalues ---   -0.26206   0.03400   0.04775   0.05389   0.06331
     Eigenvalues ---    0.12916   0.17294   0.18539   0.19923   0.21533
     Eigenvalues ---    0.24062   0.25072   0.29128   0.35441   0.36158
     Eigenvalues ---    0.36448   0.36823   0.37063   0.40831   0.47663
     Eigenvalues ---    0.59052   1.52926   2.17100  13.89137
 Eigenvectors required to have negative eigenvalues:
                          D9        R9        A9        D7        R6
   1                    0.75086   0.53119   0.20751   0.16105  -0.15392
                          R3        R2        R5        A6        A10
   1                   -0.14866   0.11785  -0.11780   0.08608   0.04242
 Angle between quadratic step and forces=  63.37 degrees.
 Linear search not attempted -- option 19 set.
 Variable       Old X    -DE/DX   Delta X   Delta X   Delta X     New X
                                 (Linear)    (Quad)   (Total)
    R2        2.63065  -0.00000   0.00000  -0.00000  -0.00000   2.63065
    R3        2.64279  -0.00000   0.00000   0.00001   0.00001   2.64280
    R4        2.03776   0.00000   0.00000   0.00000   0.00000   2.03776
    R5        2.63459   0.00000   0.00000   0.00001   0.00001   2.63460
    R6        2.75416   0.00001   0.00000   0.00002   0.00002   2.75418
    R7        2.03927   0.00000   0.00000   0.00000   0.00000   2.03927
    R8        2.03996   0.00000   0.00000   0.00000   0.00000   2.03996
    R9        2.44312   0.00000   0.00000   0.00001   0.00001   2.44312
   R10        2.04132   0.00000   0.00000   0.00000   0.00000   2.04132
    A3        1.86153  -0.00001   0.00000   0.00001   0.00001   1.86153
    A4        2.22217  -0.00000   0.00000  -0.00000  -0.00000   2.22217
    A5        1.87740  -0.00001   0.00000   0.00000   0.00000   1.87740
    A6        1.90897  -0.00002   0.00000  -0.00001  -0.00001   1.90895
    A7        2.26252  -0.00000   0.00000  -0.00001  -0.00001   2.26251
    A8        2.20227  -0.00000   0.00000  -0.00000  -0.00000   2.20227
    A9        2.00352   0.00000   0.00000   0.00001   0.00001   2.00353
   A10        2.23099  -0.00000   0.00000  -0.00000  -0.00000   2.23099
    D4        3.13896   0.00000   0.00000   0.00001   0.00001   3.13897
    D5        0.01782  -0.00000   0.00000  -0.00001  -0.00001   0.01782
    D6        0.01842  -0.00000   0.00000   0.00001   0.00001   0.01842
    D7        2.83287   0.00000   0.00000   0.00001   0.00001   2.83288
    D8        3.10480  -0.00000   0.00000   0.00001   0.00001   3.10480
    D9       -1.03219   0.00000   0.00000   0.00000   0.00000  -1.03219
   D10        3.04043   0.00000   0.00000   0.00002   0.00002   3.04045
         Item               Value     Threshold  Converged?
 Maximum Force            0.000023     0.000450     YES
 RMS     Force            0.000006     0.000300     YES
 Maximum Displacement     0.000021     0.001800     YES
 RMS     Displacement     0.000009     0.001200     YES
 Predicted change in Energy=-2.734244D-10
 Optimization completed.
    -- Stationary point found.
                       ----------------------------
                       !   Optimized Parameters   !
                       ! (Angstroms and Degrees)  !
 ----------------------                            ----------------------
 !      Name          Value   Derivative information (Atomic Units)     !
 ------------------------------------------------------------------------
 !       R2          1.3921   -DE/DX =    0.0                           !
 !       R3          1.3985   -DE/DX =    0.0                           !
 !       R4          1.0783   -DE/DX =    0.0                           !
 !       R5          1.3942   -DE/DX =    0.0                           !
 !       R6          1.4574   -DE/DX =    0.0                           !
 !       R7          1.0791   -DE/DX =    0.0                           !
 !       R8          1.0795   -DE/DX =    0.0                           !
 !       R9          1.2928   -DE/DX =    0.0                           !
 !       R10         1.0802   -DE/DX =    0.0                           !
 !       A3        106.6576   -DE/DX =    0.0                           !
 !       A4        127.3212   -DE/DX =    0.0                           !
 !       A5        107.5668   -DE/DX =    0.0                           !
 !       A6        109.3758   -DE/DX =    0.0                           !
 !       A7        129.6331   -DE/DX =    0.0                           !
 !       A8        126.1807   -DE/DX =    0.0                           !
 !       A9        114.7932   -DE/DX =    0.0                           !
 !       A10       127.8264   -DE/DX =    0.0                           !
 !       D4        179.849    -DE/DX =    0.0                           !
 !       D5          1.0213   -DE/DX =    0.0                           !
 !       D6          1.0551   -DE/DX =    0.0                           !
 !       D7        162.3114   -DE/DX =    0.0                           !
 !       D8        177.8918   -DE/DX =    0.0                           !
 !       D9        -59.1404   -DE/DX =    0.0                           !
 !       D10       174.2039   -DE/DX =    0.0                           !
 ------------------------------------------------------------------------
 GradGradGradGradGradGradGradGradGradGradGradGradGradGradGradGradGradGrad


 ----------------------------------------------------------------------

 Electric dipole moment (input orientation):
 (Debye = 10**-18 statcoulomb cm , SI units = C m)
                  (au)            (Debye)         (10**-30 SI)
   Tot        0.853428D+00      0.216920D+01      0.723566D+01
   x         -0.691904D+00     -0.175865D+01     -0.586621D+01
   y          0.295798D+00      0.751842D+00      0.250788D+01
   z         -0.402630D+00     -0.102338D+01     -0.341364D+01

 Dipole polarizability, Alpha (input orientation).
 (esu units = cm**3 , SI units = C**2 m**2 J**-1)
 Alpha(0;0):
               (au)            (10**-24 esu)      (10**-40 SI)
   iso        0.504742D+02      0.747951D+01      0.832207D+01
   aniso      0.247402D+02      0.366612D+01      0.407910D+01
   xx         0.565990D+02      0.838711D+01      0.933192D+01
   yx         0.186468D+01      0.276317D+00      0.307444D+00
   yy         0.343171D+02      0.508527D+01      0.565813D+01
   zx        -0.598090D+00     -0.886277D-01     -0.986117D-01
   zy        -0.764977D+00     -0.113358D+00     -0.126128D+00
   zz         0.605065D+02      0.896613D+01      0.997617D+01

 ----------------------------------------------------------------------

 Dipole orientation:
     6          0.00000000         -0.00000000          0.00000000
     6         -2.13276288         -0.91178214         -1.24108661
     6          2.01533682         -0.22083172         -1.69528972
     1          0.10401490          0.74153009          1.89519754
     6         -1.37911084         -1.70797775         -3.63673853
     7          1.09738806         -1.25800488         -4.07584428
     1          3.85154813          0.66537888         -1.65566434
     1         -4.01418864         -1.04354693         -0.46370888
     1          2.43133907         -2.48894063         -2.50241026
     1         -2.50094210         -2.66498595         -5.04833656

 Electric dipole moment (dipole orientation):
 (Debye = 10**-18 statcoulomb cm , SI units = C m)
                  (au)            (Debye)         (10**-30 SI)
   Tot        0.853428D+00      0.216920D+01      0.723566D+01
   x          0.000000D+00      0.000000D+00      0.000000D+00
   y          0.000000D+00      0.000000D+00      0.000000D+00
   z          0.853428D+00      0.216920D+01      0.723566D+01

 Dipole polarizability, Alpha (dipole orientation).
 (esu units = cm**3 , SI units = C**2 m**2 J**-1)
 Alpha(0;0):
               (au)            (10**-24 esu)      (10**-40 SI)
   iso        0.504742D+02      0.747951D+01      0.832207D+01
   aniso      0.247402D+02      0.366612D+01      0.407910D+01
   xx         0.595227D+02      0.882035D+01      0.981396D+01
   yx         0.349247D+01      0.517530D+00      0.575830D+00
   yy         0.383633D+02      0.568485D+01      0.632525D+01
   zx         0.135964D+00      0.201477D-01      0.224174D-01
   zy         0.853496D+01      0.126475D+01      0.140722D+01
   zz         0.535367D+02      0.793332D+01      0.882701D+01

 ----------------------------------------------------------------------
 1\1\GINC-BHC0105\Freq\RB3LYP\def2TZVP\C4H5N1\DHANAWAY\10-Jun-2022\1\\#
 N Geom=AllCheck Guess=TCheck SCRF=Check GenChk RB3LYP/def2TZVP Freq\\t
 s_zmat_initalOpt\\0,1\C\C,1,R2\C,1,R3,2,A3\H,1,R4,2,A4,3,D4,0\C,2,R5,1
 ,A5,3,D5,0\N,3,R6,1,A6,2,D6,0\H,3,R7,1,A7,6,D7,0\H,2,R8,1,A8,5,D8,0\H,
 3,R9,1,A9,6,D9,0\H,5,R10,2,A10,1,D10,0\\R2=1.3920801\R3=1.39850598\R4=
 1.07833536\R5=1.39416524\R6=1.45743879\R7=1.07913381\R8=1.07950088\R9=
 1.29284171\R10=1.08021895\A3=106.65764983\A4=127.32120408\A5=107.56684
 34\A6=109.37580981\A7=129.63306248\A8=126.18071772\A9=114.7931752\A10=
 127.8263789\D4=179.84901642\D5=1.02125734\D6=1.05511932\D7=162.3114461
 7\D8=177.89176985\D9=-59.14037366\D10=174.20392578\\Version=ES64L-G16R
 evA.03\HF=-210.1791646\RMSD=1.623e-09\RMSF=1.133e-04\ZeroPoint=0.07727
 72\Thermal=0.0809749\Dipole=-0.6919045,0.2957976,-0.4026295\DipoleDeri
 v=-0.0324307,0.0569216,0.0227302,0.0227777,-0.1742574,-0.0921683,-0.02
 77976,-0.0709475,0.0169372,0.0589023,0.0113469,-0.0816942,-0.0232916,-
 0.1574724,-0.034766,-0.0311949,0.0494252,-0.0250048,0.1691858,-0.05157
 82,-0.020052,-0.2371615,-0.1637866,0.2891774,0.1056628,0.1387592,-0.10
 77258,0.0374189,-0.0045363,-0.0525991,-0.0106402,0.1708945,0.0088258,-
 0.0465711,0.0010417,0.0631,0.1096033,-0.0449979,0.061831,0.0898121,-0.
 1319506,0.0652211,0.1265821,0.0672223,0.0743281,-0.704611,-0.0580943,0
 .0207355,0.1427818,-0.1294906,-0.0834128,-0.3404309,-0.2113242,-0.0847
 367,0.0669404,0.0095442,0.0259273,0.0659247,0.1752869,-0.1105368,0.010
 0486,-0.0301286,0.0368536,0.004502,0.001683,0.0726213,0.0082616,0.1645
 45,0.0056291,0.0753574,0.0002014,0.0351771,0.2410042,0.0894635,0.01078
 16,-0.027161,0.0946296,-0.0089676,0.1738195,0.0689116,0.0777176,0.0494
 847,-0.0097526,-0.0602815,-0.0313037,0.1516017,-0.0390019,-0.0454761,-
 0.013161,-0.0866463\Polar=56.5990479,1.8646768,34.3171326,-0.5980897,-
 0.7649772,60.5064628\PG=C01 [X(C4H5N1)]\NImag=1\\0.73320630,0.00020804
 ,0.13152862,0.13386903,0.00547509,0.66789479,-0.12152509,-0.00058715,0
 .02565571,0.73895396,0.00052170,-0.06414880,-0.00064380,0.00138456,0.1
 3440173,-0.02011810,-0.00102829,-0.33059912,-0.12774303,0.00539745,0.6
 6815797,-0.29186821,0.00043664,0.03834115,0.01570862,-0.00168364,0.085
 31188,0.54193166,0.02908223,-0.06805647,-0.03905550,0.02473060,0.01008
 425,0.02977759,-0.06315000,0.14026463,0.07340170,-0.00562262,-0.115671
 29,0.02382813,-0.00128486,-0.03234076,-0.16834542,0.08832979,0.6614172
 7,-0.24517043,-0.00144676,-0.14202614,0.00779168,0.00021273,0.00406993
 ,-0.01031944,0.00068954,-0.01867055,0.25197582,0.00089374,-0.03150525,
 -0.00065429,0.00006837,0.00138389,0.00001111,-0.00167940,-0.00063987,-
 0.00007987,0.00100894,0.02335832,-0.14215951,0.00025493,-0.16643319,-0
 .02358797,-0.00012230,-0.00664152,0.00817796,-0.00049567,0.01113797,0.
 15425187,0.00013935,0.16652830,0.01587745,0.00151390,-0.09138639,-0.29
 646578,-0.00055500,-0.03802455,-0.05298076,-0.04519632,-0.00878223,-0.
 00025506,-0.00056941,-0.00025668,0.60496769,-0.00602888,0.01235118,0.0
 0505487,-0.01168279,-0.06686466,-0.01161344,0.01177843,0.01361745,0.00
 121591,-0.00010929,0.00502345,-0.00011268,0.02230399,0.14745461,-0.030
 66313,-0.00085929,-0.02148846,-0.08157581,-0.00627691,-0.13700227,0.02
 232994,0.02593333,-0.09125237,0.00250914,0.00041845,-0.00578293,0.0941
 2647,0.03082697,0.78758396,-0.06855943,0.00259829,-0.00505457,-0.07417
 098,0.00180460,-0.00403640,-0.10887567,0.00724223,-0.01086739,-0.00423
 259,0.00000078,0.00452030,-0.18098487,0.01111167,0.09569470,0.42171024
 ,-0.03036274,0.01143106,0.02567694,-0.01939712,0.01598939,-0.02475404,
 0.07600179,0.02610611,0.01627636,-0.00067088,0.00578189,0.00069424,0.0
 4516610,-0.08599816,-0.02641586,-0.02909983,0.10934466,-0.00297924,-0.
 00417886,-0.05810610,0.06791745,0.00698911,0.03103750,-0.16279768,-0.0
 9027838,-0.14784850,0.00076569,0.00032851,-0.00030214,0.09930357,-0.00
 932482,-0.20411347,-0.07353305,0.06118653,0.36534198,0.00195372,0.0068
 1954,0.02250340,-0.00603197,-0.00038669,0.00187200,-0.10734814,0.02998
 799,0.11281557,0.00019610,-0.00047803,-0.00065094,-0.00414008,0.000262
 28,-0.00471917,0.01195586,-0.00859175,-0.01566312,0.10228037,-0.004914
 79,-0.00021112,0.00707089,-0.00427831,0.00354204,-0.00348888,0.0379398
 8,-0.03504049,-0.06634664,-0.00004158,-0.00172614,-0.00005853,0.005479
 81,0.00163759,-0.00204180,-0.00344383,-0.01214893,0.01722638,-0.029065
 65,0.04229790,-0.00070698,0.00062778,0.00059691,0.00075200,-0.00128086
 ,0.00133435,0.10644863,-0.06341694,-0.28074345,0.00055245,0.00039272,-
 0.00022232,-0.00555982,-0.00121585,-0.00153165,0.00942551,-0.00369927,
 -0.01746187,-0.11247782,0.06761331,0.30020395,0.00717783,-0.00007804,-
 0.00396804,-0.24819762,0.00356087,0.13727322,-0.00036296,0.00067137,-0
 .00240514,-0.00010433,0.00000750,0.00069934,-0.00861654,0.00065335,0.0
 1919060,-0.00567178,-0.00118089,0.00142482,0.00047722,-0.00010161,0.00
 007588,0.25563824,-0.00001343,0.00127151,0.00066964,0.00389490,-0.0355
 0918,-0.00308780,0.00060059,0.00588138,0.00121271,-0.00000249,-0.00293
 966,-0.00000912,-0.00108023,-0.00115428,0.00157312,-0.00238179,0.00762
 732,-0.00167133,-0.00063617,0.00073355,-0.00023425,-0.00402688,0.02523
 788,0.02453156,-0.00028806,-0.00674472,0.13688009,-0.00224711,-0.15966
 313,0.00089918,-0.00017865,-0.00593396,-0.00070784,0.00010906,0.000833
 30,-0.00816392,0.00023771,0.01140126,-0.00423787,-0.00071690,0.0008063
 0,0.00132847,0.00021920,0.00008978,-0.15072168,0.00277953,0.16009398,-
 0.02553648,-0.00935576,0.02384303,-0.01716974,-0.00259190,-0.01430156,
 0.01737283,0.01566060,-0.00498901,-0.00045805,0.00054141,0.00034104,0.
 02046202,-0.01708221,-0.01557966,-0.00227491,-0.03389341,0.06295270,-0
 .00028914,-0.00113502,0.00063786,-0.00056515,0.00347800,-0.00062605,0.
 00803615,0.00904461,0.00262612,-0.00188419,0.00397117,-0.00013103,0.00
 688969,-0.05804952,-0.09570178,-0.03433940,0.00032220,0.00052249,-0.00
 030608,-0.01375373,0.00501541,0.00227567,0.01290780,-0.07275369,0.0230
 6350,0.00103836,-0.00088922,0.00063043,0.00051042,0.00084184,0.0000714
 1,0.04339395,0.15897404,-0.03483944,0.00594799,0.03028487,-0.02385743,
 -0.00015541,-0.03379379,0.06615561,0.05137883,0.00297520,-0.00078115,-
 0.00063517,0.00083768,0.05612678,0.00779597,-0.03945440,-0.00590330,-0
 .04794641,0.05352994,-0.00413158,-0.02075638,-0.00146945,-0.00090625,-
 0.00133051,-0.00070645,-0.05241497,0.00453745,-0.01258160,-0.00555566,
 -0.00010870,-0.00177718,0.00110691,-0.00226722,-0.02430339,-0.00325793
 ,0.00028175,0.00401436,0.00057629,0.00020611,-0.00133541,-0.09786407,-
 0.01120653,-0.10131309,0.01110413,0.00202872,0.02260887,0.00094607,-0.
 00043889,0.00085229,0.00022509,0.00016750,0.00081806,0.00042248,0.0006
 1474,0.00055173,0.09229668,0.00156951,0.00471315,-0.00170965,0.0018957
 8,0.00125236,0.00189661,-0.00219478,0.00348478,0.00063862,0.00003758,0
 .00074088,0.00001586,-0.01330910,-0.03108260,-0.02543368,-0.00073991,-
 0.00537966,-0.00334063,0.00105012,0.00180482,0.00058292,-0.00001608,-0
 .00199036,0.00001382,0.00098435,0.00149582,0.00116364,0.01072253,0.024
 96081,-0.00033588,-0.00032866,0.00026632,0.00173086,-0.00037531,-0.000
 48922,0.00347875,-0.00199439,-0.00174011,0.00003659,-0.00002985,0.0000
 4486,-0.09738324,-0.02286465,-0.29835968,-0.00600791,-0.00030159,-0.02
 288364,-0.00087681,0.00056243,-0.00079627,-0.00066275,0.00009800,-0.00
 017635,0.00013663,-0.00093848,0.00037801,0.09988376,0.02617249,0.32375
 607\\-0.00017985,0.00046124,-0.00000134,0.00018279,-0.00025392,0.00000
 005,-0.00000179,-0.00020431,0.00000740,0.00000010,-0.00000021,0.,-0.00
 000407,0.00000029,0.00000125,0.00000346,-0.00000207,-0.00000927,0.0000
 0178,-0.00000100,0.00000205,0.00000013,-0.00000010,0.,-0.00000252,-0.0
 0000051,0.00000027,-0.00000003,0.00000057,-0.00000043\\\@


 WAR ES EIN GOTT DER DIESE ZEICHEN SCHRIEB?
          - LUDWIG BOLTZMANN, QUOTING GOETHE, ABOUT MAXWELL'S EQUATIONS.
 Job cpu time:       0 days  0 hours 17 minutes 24.9 seconds.
 Elapsed time:       0 days  0 hours  1 minutes 27.8 seconds.
 File lengths (MBytes):  RWF=     34 Int=      0 D2E=      0 Chk=     32 Scr=      1
 Normal termination of Gaussian 16 at Fri Jun 10 02:17:38 2022.
