 Entering Gaussian System, Link 0=g16
 Input=int_zmat_field_N50.gjf
 Output=int_zmat_field_N50.out
 Initial command:
 /software/gaussian/g16-a03/l1.exe "/local_scratch/11174585/Gau-25630.inp" -scrdir="/local_scratch/11174585/"
 Entering Link 1 = /software/gaussian/g16-a03/l1.exe PID=     25632.
  
 Copyright (c) 1988,1990,1992,1993,1995,1998,2003,2009,2016,
            Gaussian, Inc.  All Rights Reserved.
  
 This is part of the Gaussian(R) 16 program.  It is based on
 the Gaussian(R) 09 system (copyright 2009, Gaussian, Inc.),
 the Gaussian(R) 03 system (copyright 2003, Gaussian, Inc.),
 the Gaussian(R) 98 system (copyright 1998, Gaussian, Inc.),
 the Gaussian(R) 94 system (copyright 1995, Gaussian, Inc.),
 the Gaussian 92(TM) system (copyright 1992, Gaussian, Inc.),
 the Gaussian 90(TM) system (copyright 1990, Gaussian, Inc.),
 the Gaussian 88(TM) system (copyright 1988, Gaussian, Inc.),
 the Gaussian 86(TM) system (copyright 1986, Carnegie Mellon
 University), and the Gaussian 82(TM) system (copyright 1983,
 Carnegie Mellon University). Gaussian is a federally registered
 trademark of Gaussian, Inc.
  
 This software contains proprietary and confidential information,
 including trade secrets, belonging to Gaussian, Inc.
  
 This software is provided under written license and may be
 used, copied, transmitted, or stored only in accord with that
 written license.
  
 The following legend is applicable only to US Government
 contracts under FAR:
  
                    RESTRICTED RIGHTS LEGEND
  
 Use, reproduction and disclosure by the US Government is
 subject to restrictions as set forth in subparagraphs (a)
 and (c) of the Commercial Computer Software - Restricted
 Rights clause in FAR 52.227-19.
  
 Gaussian, Inc.
 340 Quinnipiac St., Bldg. 40, Wallingford CT 06492
  
  
 ---------------------------------------------------------------
 Warning -- This program may not be used in any manner that
 competes with the business of Gaussian, Inc. or will provide
 assistance to any competitor of Gaussian, Inc.  The licensee
 of this program is prohibited from giving any competitor of
 Gaussian, Inc. access to this program.  By using this program,
 the user acknowledges that Gaussian, Inc. is engaged in the
 business of creating and licensing software in the field of
 computational chemistry and represents and warrants to the
 licensee that it is not a competitor of Gaussian, Inc. and that
 it will not use this program in any manner prohibited above.
 ---------------------------------------------------------------
  

 Cite this work as:
 Gaussian 16, Revision A.03,
 M. J. Frisch, G. W. Trucks, H. B. Schlegel, G. E. Scuseria, 
 M. A. Robb, J. R. Cheeseman, G. Scalmani, V. Barone, 
 G. A. Petersson, H. Nakatsuji, X. Li, M. Caricato, A. V. Marenich, 
 J. Bloino, B. G. Janesko, R. Gomperts, B. Mennucci, H. P. Hratchian, 
 J. V. Ortiz, A. F. Izmaylov, J. L. Sonnenberg, D. Williams-Young, 
 F. Ding, F. Lipparini, F. Egidi, J. Goings, B. Peng, A. Petrone, 
 T. Henderson, D. Ranasinghe, V. G. Zakrzewski, J. Gao, N. Rega, 
 G. Zheng, W. Liang, M. Hada, M. Ehara, K. Toyota, R. Fukuda, 
 J. Hasegawa, M. Ishida, T. Nakajima, Y. Honda, O. Kitao, H. Nakai, 
 T. Vreven, K. Throssell, J. A. Montgomery, Jr., J. E. Peralta, 
 F. Ogliaro, M. J. Bearpark, J. J. Heyd, E. N. Brothers, K. N. Kudin, 
 V. N. Staroverov, T. A. Keith, R. Kobayashi, J. Normand, 
 K. Raghavachari, A. P. Rendell, J. C. Burant, S. S. Iyengar, 
 J. Tomasi, M. Cossi, J. M. Millam, M. Klene, C. Adamo, R. Cammi, 
 J. W. Ochterski, R. L. Martin, K. Morokuma, O. Farkas, 
 J. B. Foresman, and D. J. Fox, Gaussian, Inc., Wallingford CT, 2016.
 
 ******************************************
 Gaussian 16:  ES64L-G16RevA.03 25-Dec-2016
                10-Jun-2022 
 ******************************************
 %nprocshared=12
 Will use up to   12 processors via shared memory.
 %chk=checkpoint.chk
 %mem=12GB
 ----------------------------------------------------------------------
 # Opt=(Z-matrix, MaxStep=10) B3LYP/Def2TZVP geom=allcheckpoint guess=r
 ead Field=read NoSymm freq=noraman pop=none
 ----------------------------------------------------------------------
 1/8=10,10=7,18=40,26=3,29=7,38=1/1,3;
 2/12=2,15=1,29=3,40=1/2;
 3/5=44,7=101,11=2,14=-6,25=1,30=1,71=1,74=-5,116=-2/1,2,3;
 4/5=1/1;
 5/5=2,38=6/2;
 7/29=1,30=1/1,2,3,16;
 1/8=10,10=7,18=40,26=3/3(2);
 2/15=1,29=3/2;
 99//99;
 2/15=1,29=3/2;
 3/5=44,7=101,11=2,14=-2,25=1,30=1,71=1,74=-5/1,2,3;
 4/5=5,16=3,69=1/1;
 5/5=2,38=5/2;
 7/30=1/1,2,3,16;
 1/8=10,18=40,26=3/3(-5);
 2/15=1,29=3/2;
 99/9=1/99;
 Structure from the checkpoint file:  "checkpoint.chk"
 ------------------
 int_zmat_initalOpt
 ------------------
 Charge =  0 Multiplicity = 1
 Z-Matrix found in chk file.
 H
 C,1,R2
 C,2,R3,1,A3
 O,2,R4,1,A4,3,D4,0
 H,2,R5,1,A5,3,D5,0
 C,4,R6,2,A6,1,D6,0
 C,3,R7,2,A7,1,D7,0
 C,3,R8,2,A8,7,D8,0
 H,6,R9,4,A9,2,D9,0
 H,6,R10,4,A10,9,D10,0
 C,7,R11,3,A11,2,D11,0
 H,7,R12,3,A12,11,D12,0
 H,8,R13,3,A13,2,D13,0
 C,8,R14,3,A14,13,D14,0
 C,11,R15,7,A15,3,D15,0
 H,11,R16,7,A16,15,D16,0
 H,14,R17,8,A17,3,D17,0
 H,14,R18,8,A18,17,D18,0
 H,14,R19,8,A19,17,D19,0
 H,15,R20,11,A20,7,D20,0
 H,15,R21,11,A21,20,D21,0
      Variables:
 R2=1.09916435
 R3=1.51553452
 R4=1.42800599
 R5=1.09234532
 R6=1.42348448
 R7=1.52622196
 R8=1.32771407
 R9=1.08961762
 R10=1.09900287
 R11=1.49884114
 R12=1.09947379
 R13=1.08565824
 R14=1.49875851
 R15=1.3276596
 R16=1.08585379
 R17=1.09028565
 R18=1.09406933
 R19=1.09408392
 R20=1.08326649
 R21=1.08247818
 A3=111.35766865
 A4=109.91831898
 A5=108.03538501
 A6=107.58398686
 A7=106.18019938
 A8=126.47243325
 A9=107.83673066
 A10=110.47314423
 A11=115.96631506
 A12=107.07694824
 A13=118.73875509
 A14=125.84154603
 A15=126.57905488
 A16=115.1055023
 A17=112.61508221
 A18=110.84840879
 A19=110.9313723
 A20=122.66823554
 A21=120.94306457
 D4=117.54509349
 D5=-125.1482156
 D6=-96.22386418
 D7=118.19036867
 D8=-179.47064814
 D9=-159.49932148
 D10=-118.95838359
 D11=-147.63413165
 D12=-120.02076483
 D13=179.15625406
 D14=-180.54912303
 D15=127.40261414
 D16=178.07296139
 D17=2.21492959
 D18=-120.82624087
 D19=121.12353678
 D20=-0.87681276
 D21=179.60097099
 Recover connectivity data from disk.

 GradGradGradGradGradGradGradGradGradGradGradGradGradGradGradGradGradGrad
 Berny optimization.
 Initialization pass.
                       ----------------------------
                       !    Initial Parameters    !
                       ! (Angstroms and Degrees)  !
 ----------------------                            ----------------------
 !      Name          Value   Derivative information (Atomic Units)     !
 ------------------------------------------------------------------------
 !       R2          1.0992   estimate D2E/DX2                          !
 !       R3          1.5155   estimate D2E/DX2                          !
 !       R4          1.428    estimate D2E/DX2                          !
 !       R5          1.0923   estimate D2E/DX2                          !
 !       R6          1.4235   estimate D2E/DX2                          !
 !       R7          1.5262   estimate D2E/DX2                          !
 !       R8          1.3277   estimate D2E/DX2                          !
 !       R9          1.0896   estimate D2E/DX2                          !
 !       R10         1.099    estimate D2E/DX2                          !
 !       R11         1.4988   estimate D2E/DX2                          !
 !       R12         1.0995   estimate D2E/DX2                          !
 !       R13         1.0857   estimate D2E/DX2                          !
 !       R14         1.4988   estimate D2E/DX2                          !
 !       R15         1.3277   estimate D2E/DX2                          !
 !       R16         1.0859   estimate D2E/DX2                          !
 !       R17         1.0903   estimate D2E/DX2                          !
 !       R18         1.0941   estimate D2E/DX2                          !
 !       R19         1.0941   estimate D2E/DX2                          !
 !       R20         1.0833   estimate D2E/DX2                          !
 !       R21         1.0825   estimate D2E/DX2                          !
 !       A3        111.3577   estimate D2E/DX2                          !
 !       A4        109.9183   estimate D2E/DX2                          !
 !       A5        108.0354   estimate D2E/DX2                          !
 !       A6        107.584    estimate D2E/DX2                          !
 !       A7        106.1802   estimate D2E/DX2                          !
 !       A8        126.4724   estimate D2E/DX2                          !
 !       A9        107.8367   estimate D2E/DX2                          !
 !       A10       110.4731   estimate D2E/DX2                          !
 !       A11       115.9663   estimate D2E/DX2                          !
 !       A12       107.0769   estimate D2E/DX2                          !
 !       A13       118.7388   estimate D2E/DX2                          !
 !       A14       125.8415   estimate D2E/DX2                          !
 !       A15       126.5791   estimate D2E/DX2                          !
 !       A16       115.1055   estimate D2E/DX2                          !
 !       A17       112.6151   estimate D2E/DX2                          !
 !       A18       110.8484   estimate D2E/DX2                          !
 !       A19       110.9314   estimate D2E/DX2                          !
 !       A20       122.6682   estimate D2E/DX2                          !
 !       A21       120.9431   estimate D2E/DX2                          !
 !       D4        117.5451   estimate D2E/DX2                          !
 !       D5       -125.1482   estimate D2E/DX2                          !
 !       D6        -96.2239   estimate D2E/DX2                          !
 !       D7        118.1904   estimate D2E/DX2                          !
 !       D8       -179.4706   estimate D2E/DX2                          !
 !       D9       -159.4993   estimate D2E/DX2                          !
 !       D10      -118.9584   estimate D2E/DX2                          !
 !       D11      -147.6341   estimate D2E/DX2                          !
 !       D12      -120.0208   estimate D2E/DX2                          !
 !       D13       179.1563   estimate D2E/DX2                          !
 !       D14      -180.5491   estimate D2E/DX2                          !
 !       D15       127.4026   estimate D2E/DX2                          !
 !       D16       178.073    estimate D2E/DX2                          !
 !       D17         2.2149   estimate D2E/DX2                          !
 !       D18      -120.8262   estimate D2E/DX2                          !
 !       D19       121.1235   estimate D2E/DX2                          !
 !       D20        -0.8768   estimate D2E/DX2                          !
 !       D21       179.601    estimate D2E/DX2                          !
 ------------------------------------------------------------------------
 Trust Radius=1.00D-01 FncErr=1.00D-07 GrdErr=1.00D-06 EigMax=2.50D+02 EigMin=1.00D-04
 Number of steps in this run=     67 maximum allowed number of steps=    114.
 GradGradGradGradGradGradGradGradGradGradGradGradGradGradGradGradGradGrad

 ---------------------------------------------------------------------------------------------------
                            Z-MATRIX (ANGSTROMS AND DEGREES)
   CD    Cent   Atom    N1       Length/X        N2       Alpha/Y        N3        Beta/Z          J
 ---------------------------------------------------------------------------------------------------
      1      1  H 
      2      2  C        1   1.099164(     1)
      3      3  C        2   1.515535(     2)      1  111.358(    21)
      4      4  O        2   1.428006(     3)      1  109.918(    22)      3  117.545(    40)      0
      5      5  H        2   1.092345(     4)      1  108.035(    23)      3 -125.148(    41)      0
      6      6  C        4   1.423484(     5)      2  107.584(    24)      1  -96.224(    42)      0
      7      7  C        3   1.526222(     6)      2  106.180(    25)      1  118.190(    43)      0
      8      8  C        3   1.327714(     7)      2  126.472(    26)      7 -179.471(    44)      0
      9      9  H        6   1.089618(     8)      4  107.837(    27)      2 -159.499(    45)      0
     10     10  H        6   1.099003(     9)      4  110.473(    28)      9 -118.958(    46)      0
     11     11  C        7   1.498841(    10)      3  115.966(    29)      2 -147.634(    47)      0
     12     12  H        7   1.099474(    11)      3  107.077(    30)     11 -120.021(    48)      0
     13     13  H        8   1.085658(    12)      3  118.739(    31)      2  179.156(    49)      0
     14     14  C        8   1.498759(    13)      3  125.842(    32)     13 -180.549(    50)      0
     15     15  C       11   1.327660(    14)      7  126.579(    33)      3  127.403(    51)      0
     16     16  H       11   1.085854(    15)      7  115.106(    34)     15  178.073(    52)      0
     17     17  H       14   1.090286(    16)      8  112.615(    35)      3    2.215(    53)      0
     18     18  H       14   1.094069(    17)      8  110.848(    36)     17 -120.826(    54)      0
     19     19  H       14   1.094084(    18)      8  110.931(    37)     17  121.124(    55)      0
     20     20  H       15   1.083266(    19)     11  122.668(    38)      7   -0.877(    56)      0
     21     21  H       15   1.082478(    20)     11  120.943(    39)     20  179.601(    57)      0
 ---------------------------------------------------------------------------------------------------
                         Z-Matrix orientation:                         
 ---------------------------------------------------------------------
 Center     Atomic      Atomic             Coordinates (Angstroms)
 Number     Number       Type             X           Y           Z
 ---------------------------------------------------------------------
      1          1           0        0.000000    0.000000    0.000000
      2          6           0        0.000000    0.000000    1.099164
      3          6           0        1.411455    0.000000    1.651105
      4          8           0       -0.620872    1.190396    1.585658
      5          1           0       -0.597958   -0.849288    1.437359
      6          6           0        0.411395    2.128271    1.870477
      7          6           0        1.555368    1.291903    2.450873
      8          6           0        2.333340   -0.936328    1.460728
      9          1           0        0.009004    2.867606    2.562382
     10          1           0        0.732410    2.637593    0.951049
     11          6           0        2.921406    1.908635    2.461182
     12          1           0        1.289262    1.058559    3.491825
     13          1           0        3.314088   -0.801523    1.906391
     14          6           0        2.149974   -2.202591    0.680195
     15          6           0        3.225342    3.163437    2.151706
     16          1           0        3.721588    1.250499    2.786211
     17          1           0        1.160196   -2.277459    0.229131
     18          1           0        2.292449   -3.078516    1.320073
     19          1           0        2.892027   -2.279362   -0.120107
     20          1           0        2.481045    3.884659    1.836542
     21          1           0        4.245875    3.519591    2.210224
 ---------------------------------------------------------------------
                    Distance matrix (angstroms):
                    1          2          3          4          5
     1  H    0.000000
     2  C    1.099164   0.000000
     3  C    2.172177   1.515535   0.000000
     4  O    2.077700   1.428006   2.356201   0.000000
     5  H    1.773371   1.092345   2.191967   2.045196   0.000000
     6  C    2.863122   2.300806   2.361733   1.423484   3.173679
     7  C    3.177257   2.432139   1.526222   2.344125   3.201362
     8  C    2.907733   2.540062   1.327714   3.642243   2.932683
     9  H    3.845653   3.219356   3.319708   2.040531   3.930569
    10  H    2.897899   2.741398   2.812131   2.080500   3.763604
    11  C    4.270236   3.746010   2.564969   3.718890   4.586968
    12  H    3.869830   2.916774   2.126906   2.701752   3.379690
    13  H    3.906397   3.503888   2.080293   4.422049   3.940352
    14  C    3.152215   3.106337   2.517833   4.473233   3.155290
    15  C    5.003999   4.638751   3.680777   4.359663   5.588369
    16  H    4.814243   4.273182   2.861629   4.505763   4.988685
    17  H    2.566199   2.699969   2.696657   4.127758   2.567215
    18  H    4.058962   3.844656   3.219160   5.175092   3.652076
    19  H    3.684256   3.878909   3.244191   5.223918   4.080540
    20  H    4.961758   4.667964   4.033483   4.116295   5.661259
    21  H    5.941386   5.625783   4.553468   5.431433   6.568648
                    6          7          8          9         10
     6  C    0.000000
     7  C    1.531354   0.000000
     8  C    3.640540   2.559422   0.000000
     9  H    1.089618   2.210546   4.591959   0.000000
    10  H    1.099003   2.176606   3.949134   1.781183   0.000000
    11  C    2.587919   1.498841   3.072547   3.067890   2.757460
    12  H    2.131596   1.099474   3.032331   2.403242   3.042856
    13  H    4.124391   2.787829   1.085658   4.981607   4.405140
    14  C    4.816201   3.962366   1.498759   5.816638   5.050766
    15  C    3.011470   2.526055   4.252198   3.255917   2.816522
    16  H    3.544915   2.192413   2.909699   4.055664   3.771874
    17  H    4.760796   4.222871   2.166040   5.765500   4.986171
    18  H    5.563446   4.574118   2.147190   6.489516   5.936649
    19  H    5.435365   4.598971   2.148234   6.480652   5.476109
    20  H    2.714682   2.820756   4.837868   2.769878   2.323143
    21  H    4.093218   3.501333   4.906602   4.301183   3.835086
                   11         12         13         14         15
    11  C    0.000000
    12  H    2.109206   0.000000
    13  H    2.794092   3.173866   0.000000
    14  C    4.546340   4.391035   2.195839   0.000000
    15  C    1.327660   3.158296   3.973533   5.667100   0.000000
    16  H    1.085854   2.539871   2.269566   4.339251   2.075618
    17  H    5.060365   4.668067   3.103359   1.090286   6.128986
    18  H    5.154551   4.778941   2.563633   1.094069   6.365837
    19  H    4.919679   5.172681   2.543390   1.094084   5.907309
    20  H    2.118670   3.485276   4.760161   6.204946   1.083266
    21  H    2.100566   4.054719   4.430865   6.283085   1.082478
                   16         17         18         19         20
    16  H    0.000000
    17  H    5.054292   0.000000
    18  H    4.788775   1.764608   0.000000
    19  H    4.647017   1.766695   1.752786   0.000000
    20  H    3.062616   6.503853   6.984848   6.480165   0.000000
    21  H    2.399045   6.859441   6.938534   6.394622   1.840527
                   21
    21  H    0.000000
 Symmetry turned off by external request.
 Stoichiometry    C8H12O
 Framework group  C1[X(C8H12O)]
 Deg. of freedom    57
 Full point group                 C1      NOp   1
 Rotational constants (GHZ):           2.1679462           1.3238181           0.8728911
 Standard basis: def2TZVP (5D, 7F)
 The following finite field(s) will be applied:
 An electric field of             -0.0026  0.0026 -0.0034
   351 basis functions,   555 primitive gaussians,   396 cartesian basis functions
    34 alpha electrons       34 beta electrons
       nuclear repulsion energy       444.5024743306 Hartrees.
 NAtoms=   21 NActive=   21 NUniq=   21 SFac= 1.00D+00 NAtFMM=   60 NAOKFM=F Big=F
 Integral buffers will be    131072 words long.
 Raffenetti 2 integral format.
 Two-electron integral symmetry is turned off.
 One-electron integrals computed using PRISM.
   1 Symmetry operations used in ECPInt.
 ECPInt:  NShTT=   10878 NPrTT=   32112 LenC2=   10557 LenP2D=   24698.
 LDataN:  DoStor=T MaxTD1= 6 Len=  172
 NBasis=   351 RedAO= T EigKep=  6.97D-05  NBF=   351
 NBsUse=   351 1.00D-06 EigRej= -1.00D+00 NBFU=   351
 The nuclear repulsion energy is now       443.5097750807 hartrees.
 Initial guess from the checkpoint file:  "checkpoint.chk"
 B after Tr=     0.000000    0.000000   -0.000000
         Rot=    1.000000   -0.000000    0.000000   -0.000000 Ang=   0.00 deg.
 Requested convergence on RMS density matrix=1.00D-08 within 128 cycles.
 Requested convergence on MAX density matrix=1.00D-06.
 Requested convergence on             energy=1.00D-06.
 No special actions if energy rises.
 SCF Done:  E(RB3LYP) =  -387.394538570     A.U. after   10 cycles
            NFock= 10  Conv=0.45D-08     -V/T= 2.0053
   1 Symmetry operations used in ECPInt.
 ECPInt:  NShTT=   10878 NPrTT=   32112 LenC2=   10557 LenP2D=   24698.
 LDataN:  DoStor=T MaxTD1= 7 Len=  274
 Calling FoFJK, ICntrl=      2127 FMM=F ISym2X=0 I1Cent= 0 IOpClX= 0 NMat=1 NMatS=1 NMatT=0.
 -------------------------------------------------------------------
 Center     Atomic                   Forces (Hartrees/Bohr)
 Number     Number              X              Y              Z
 -------------------------------------------------------------------
      1        1           0.000410804   -0.000284265   -0.000326669
      2        6          -0.000098419   -0.000289563    0.000504291
      3        6           0.000231678   -0.000010400   -0.000216172
      4        8          -0.000895831    0.000666611   -0.000616268
      5        1          -0.000003751    0.000062393    0.000056714
      6        6           0.000400725   -0.000505235    0.000650640
      7        6          -0.000097906    0.000104362    0.000221791
      8        6           0.000108883    0.000049061   -0.000336590
      9        1          -0.000024480    0.000028999    0.000151005
     10        1           0.000161617    0.000138222   -0.000318399
     11        6           0.000050167   -0.000251663   -0.000118877
     12        1           0.000108060    0.000120857   -0.000045630
     13        1          -0.000188593   -0.000182645    0.000050400
     14        6           0.000002628   -0.000032903    0.000182430
     15        6           0.000280827   -0.000041587   -0.000303952
     16        1          -0.000169897    0.000163160    0.000094247
     17        1          -0.000236001   -0.000020307    0.000017200
     18        1           0.000083751    0.000231566   -0.000095116
     19        1           0.000154876   -0.000031763    0.000196166
     20        1          -0.000254894    0.000128657    0.000077361
     21        1          -0.000024245   -0.000043557    0.000175428
 -------------------------------------------------------------------
 Cartesian Forces:  Max     0.000895831 RMS     0.000264501
 -----------------------------------------------------------------------------------------------
                       Internal Coordinate Forces (Hartree/Bohr or radian)
  Cent   Atom   N1       Length/X         N2         Alpha/Y        N3         Beta/Z          J
 -----------------------------------------------------------------------------------------------
      1  H 
      2  C        1   0.000327(     1)
      3  C        2   0.000009(     2)      1   0.000088(    21)
      4  O        2   0.000384(     3)      1  -0.000046(    22)      3  -0.001252(    40)     0
      5  H        2  -0.000029(     4)      1   0.000143(    23)      3  -0.000077(    41)     0
      6  C        4   0.000264(     5)      2  -0.001263(    24)      1  -0.001616(    42)     0
      7  C        3   0.000195(     6)      2  -0.000550(    25)      1  -0.000773(    43)     0
      8  C        3  -0.000063(     7)      2   0.000122(    26)      7  -0.000629(    44)     0
      9  H        6   0.000125(     8)      4  -0.000014(    27)      2   0.000062(    45)     0
     10  H        6   0.000378(     9)      4   0.000028(    28)      9  -0.000120(    46)     0
     11  C        7  -0.000127(    10)      3   0.000178(    29)      2   0.000127(    47)     0
     12  H        7  -0.000095(    11)      3   0.000253(    30)     11   0.000133(    48)     0
     13  H        8  -0.000172(    12)      3   0.000172(    31)      2  -0.000150(    49)     0
     14  C        8  -0.000281(    13)      3   0.000364(    32)     13  -0.000485(    50)     0
     15  C       11   0.000053(    14)      7  -0.000074(    33)      3  -0.000130(    51)     0
     16  H       11  -0.000196(    15)      7  -0.000009(    34)     15  -0.000299(    52)     0
     17  H       14   0.000209(    16)      8  -0.000096(    35)      3   0.000057(    53)     0
     18  H       14  -0.000230(    17)      8  -0.000165(    36)     17  -0.000197(    54)     0
     19  H       14  -0.000036(    18)      8  -0.000180(    37)     17   0.000451(    55)     0
     20  H       15   0.000238(    19)     11  -0.000203(    38)      7  -0.000029(    56)     0
     21  H       15  -0.000028(    20)     11  -0.000175(    39)     20  -0.000278(    57)     0
 -----------------------------------------------------------------------------------------------
 Internal  Forces:  Max     0.001616099 RMS     0.000400101

 GradGradGradGradGradGradGradGradGradGradGradGradGradGradGradGradGradGrad
 Berny optimization.
 Search for a local minimum.
 Step number   1 out of a maximum of   67
 All quantities printed in internal units (Hartrees-Bohrs-Radians)
 Second derivative matrix not updated -- first step.
 ITU=  0
     Eigenvalues ---    0.03263   0.03739   0.04404   0.05335   0.05918
     Eigenvalues ---    0.07484   0.08091   0.08605   0.10232   0.11462
     Eigenvalues ---    0.14298   0.15100   0.15989   0.16531   0.16930
     Eigenvalues ---    0.19381   0.21432   0.21864   0.24012   0.24199
     Eigenvalues ---    0.24963   0.26602   0.29001   0.29769   0.30971
     Eigenvalues ---    0.31947   0.32499   0.32508   0.33536   0.33741
     Eigenvalues ---    0.33775   0.33793   0.34345   0.34349   0.34543
     Eigenvalues ---    0.34779   0.34857   0.35296   0.35318   0.35602
     Eigenvalues ---    0.35646   0.35701   0.36105   0.39752   0.40221
     Eigenvalues ---    0.40790   0.42936   0.48573   0.54833   0.55508
     Eigenvalues ---    0.60040   0.60062   0.62920   0.84330   1.49392
     Eigenvalues ---    2.78539  10.76090
 RFO step:  Lambda=-2.56376161D-05 EMin= 3.26284642D-02
 Linear search not attempted -- first point.
 Variable       Old X    -DE/DX   Delta X   Delta X   Delta X     New X
                                 (Linear)    (Quad)   (Total)
    R2        2.07712   0.00033   0.00000   0.00097   0.00097   2.07809
    R3        2.86395   0.00001   0.00000   0.00042   0.00042   2.86437
    R4        2.69854   0.00038   0.00000   0.00160   0.00160   2.70014
    R5        2.06423  -0.00003   0.00000  -0.00009  -0.00009   2.06415
    R6        2.69000   0.00026   0.00000   0.00097   0.00097   2.69097
    R7        2.88414   0.00019   0.00000  -0.00006  -0.00006   2.88408
    R8        2.50902  -0.00006   0.00000  -0.00011  -0.00011   2.50891
    R9        2.05908   0.00012   0.00000   0.00036   0.00036   2.05944
   R10        2.07681   0.00038   0.00000   0.00113   0.00113   2.07794
   R11        2.83240  -0.00013   0.00000  -0.00039  -0.00039   2.83201
   R12        2.07770  -0.00010   0.00000  -0.00029  -0.00029   2.07742
   R13        2.05160  -0.00017   0.00000  -0.00049  -0.00049   2.05111
   R14        2.83224  -0.00028   0.00000  -0.00086  -0.00086   2.83138
   R15        2.50891   0.00005   0.00000   0.00009   0.00009   2.50900
   R16        2.05197  -0.00020   0.00000  -0.00055  -0.00055   2.05141
   R17        2.06034   0.00021   0.00000   0.00060   0.00060   2.06094
   R18        2.06749  -0.00023   0.00000  -0.00067  -0.00067   2.06683
   R19        2.06752  -0.00004   0.00000  -0.00010  -0.00010   2.06742
   R20        2.04708   0.00024   0.00000   0.00067   0.00067   2.04775
   R21        2.04559  -0.00003   0.00000  -0.00007  -0.00007   2.04551
    A3        1.94356   0.00009   0.00000   0.00237   0.00237   1.94593
    A4        1.91844  -0.00005   0.00000  -0.00514  -0.00514   1.91329
    A5        1.88557   0.00014   0.00000   0.00058   0.00058   1.88616
    A6        1.87769  -0.00126   0.00000  -0.00016  -0.00016   1.87753
    A7        1.85319  -0.00055   0.00000   0.00040   0.00040   1.85359
    A8        2.20736   0.00012   0.00000  -0.00012  -0.00012   2.20724
    A9        1.88211  -0.00001   0.00000  -0.00011  -0.00011   1.88199
   A10        1.92812   0.00003   0.00000  -0.00062  -0.00062   1.92750
   A11        2.02399   0.00018   0.00000  -0.00003  -0.00003   2.02397
   A12        1.86885   0.00025   0.00000   0.00124   0.00124   1.87008
   A13        2.07238   0.00017   0.00000   0.00024   0.00024   2.07262
   A14        2.19635   0.00036   0.00000   0.00065   0.00065   2.19700
   A15        2.20922  -0.00007   0.00000  -0.00030  -0.00030   2.20892
   A16        2.00897  -0.00001   0.00000   0.00015   0.00015   2.00912
   A17        1.96550  -0.00010   0.00000   0.00053   0.00053   1.96603
   A18        1.93467  -0.00016   0.00000  -0.00087  -0.00087   1.93380
   A19        1.93612  -0.00018   0.00000  -0.00076  -0.00076   1.93536
   A20        2.14096  -0.00020   0.00000  -0.00050  -0.00050   2.14046
   A21        2.11085  -0.00017   0.00000  -0.00028  -0.00028   2.11058
    D4        2.05155  -0.00125   0.00000  -0.00035  -0.00035   2.05120
    D5       -2.18425  -0.00008   0.00000  -0.00284  -0.00284  -2.18709
    D6       -1.67942  -0.00162   0.00000  -0.00892  -0.00892  -1.68834
    D7        2.06281  -0.00077   0.00000   0.00134   0.00134   2.06415
    D8       -3.13235  -0.00063   0.00000  -0.00403  -0.00403  -3.13639
    D9       -2.78379   0.00006   0.00000   0.00609   0.00609  -2.77770
   D10       -2.07622  -0.00012   0.00000   0.00028   0.00028  -2.07594
   D11       -2.57670   0.00013   0.00000  -0.00037  -0.00037  -2.57707
   D12       -2.09476   0.00013   0.00000  -0.00018  -0.00018  -2.09494
   D13        3.12687  -0.00015   0.00000   0.00298   0.00298   3.12985
   D14       -3.15118  -0.00049   0.00000  -0.00456  -0.00456  -3.15574
   D15        2.22360  -0.00013   0.00000  -0.00091  -0.00091   2.22269
   D16        3.10796  -0.00030   0.00000  -0.00235  -0.00235   3.10560
   D17        0.03866   0.00006   0.00000   0.00067   0.00067   0.03933
   D18       -2.10882  -0.00020   0.00000  -0.00029  -0.00029  -2.10911
   D19        2.11400   0.00045   0.00000   0.00219   0.00219   2.11619
   D20       -0.01530  -0.00003   0.00000   0.00085   0.00085  -0.01446
   D21        3.13463  -0.00028   0.00000  -0.00377  -0.00377   3.13086
         Item               Value     Threshold  Converged?
 Maximum Force            0.001616     0.000450     NO 
 RMS     Force            0.000400     0.000300     NO 
 Maximum Displacement     0.008920     0.001800     NO 
 RMS     Displacement     0.002075     0.001200     NO 
 Predicted change in Energy=-1.281881D-05
 GradGradGradGradGradGradGradGradGradGradGradGradGradGradGradGradGradGrad

 ---------------------------------------------------------------------------------------------------
                            Z-MATRIX (ANGSTROMS AND DEGREES)
   CD    Cent   Atom    N1       Length/X        N2       Alpha/Y        N3        Beta/Z          J
 ---------------------------------------------------------------------------------------------------
      1      1  H 
      2      2  C        1   1.099676(     1)
      3      3  C        2   1.515759(     2)      1  111.493(    21)
      4      4  O        2   1.428854(     3)      1  109.624(    22)      3  117.525(    40)      0
      5      5  H        2   1.092299(     4)      1  108.069(    23)      3 -125.311(    41)      0
      6      6  C        4   1.423998(     5)      2  107.575(    24)      1  -96.735(    42)      0
      7      7  C        3   1.526189(     6)      2  106.203(    25)      1  118.267(    43)      0
      8      8  C        3   1.327658(     7)      2  126.466(    26)      7 -179.702(    44)      0
      9      9  H        6   1.089807(     8)      4  107.830(    27)      2 -159.151(    45)      0
     10     10  H        6   1.099598(     9)      4  110.437(    28)      9 -118.943(    46)      0
     11     11  C        7   1.498635(    10)      3  115.965(    29)      2 -147.655(    47)      0
     12     12  H        7   1.099323(    11)      3  107.148(    30)     11 -120.031(    48)      0
     13     13  H        8   1.085401(    12)      3  118.753(    31)      2  179.327(    49)      0
     14     14  C        8   1.498301(    13)      3  125.879(    32)     13 -180.811(    50)      0
     15     15  C       11   1.327706(    14)      7  126.562(    33)      3  127.351(    51)      0
     16     16  H       11   1.085561(    15)      7  115.114(    34)     15  177.938(    52)      0
     17     17  H       14   1.090604(    16)      8  112.645(    35)      3    2.253(    53)      0
     18     18  H       14   1.093717(    17)      8  110.799(    36)     17 -120.843(    54)      0
     19     19  H       14   1.094033(    18)      8  110.888(    37)     17  121.249(    55)      0
     20     20  H       15   1.083621(    19)     11  122.639(    38)      7   -0.828(    56)      0
     21     21  H       15   1.082439(    20)     11  120.927(    39)     20  179.385(    57)      0
 ---------------------------------------------------------------------------------------------------
                         Z-Matrix orientation:                         
 ---------------------------------------------------------------------
 Center     Atomic      Atomic             Coordinates (Angstroms)
 Number     Number       Type             X           Y           Z
 ---------------------------------------------------------------------
      1          1           0        0.000000    0.000000    0.000000
      2          6           0        0.000000    0.000000    1.099676
      3          6           0        1.410353    0.000000    1.655040
      4          8           0       -0.621978    1.193523    1.579542
      5          1           0       -0.600231   -0.847386    1.438464
      6          6           0        0.411125    2.128306    1.873904
      7          6           0        1.552305    1.290798    2.456877
      8          6           0        2.331619   -0.937751    1.469113
      9          1           0        0.006247    2.866050    2.566355
     10          1           0        0.738116    2.640427    0.957430
     11          6           0        2.918156    1.907359    2.471387
     12          1           0        1.283688    1.057435    3.497020
     13          1           0        3.310438   -0.804501    1.918839
     14          6           0        2.149068   -2.206498    0.693316
     15          6           0        3.222665    3.162420    2.163329
     16          1           0        3.716929    1.249993    2.800435
     17          1           0        1.160024   -2.282977    0.240149
     18          1           0        2.290056   -3.079199    1.337314
     19          1           0        2.894394   -2.287162   -0.103484
     20          1           0        2.478332    3.883680    1.847124
     21          1           0        4.242588    3.519230    2.227503
 ---------------------------------------------------------------------
                    Distance matrix (angstroms):
                    1          2          3          4          5
     1  H    0.000000
     2  C    1.099676   0.000000
     3  C    2.174455   1.515759   0.000000
     4  O    2.075164   1.428854   2.358085   0.000000
     5  H    1.774125   1.092299   2.192582   2.045894   0.000000
     6  C    2.865350   2.301769   2.361365   1.423998   3.172884
     7  C    3.179946   2.432654   1.526189   2.346632   3.200376
     8  C    2.911034   2.540139   1.327658   3.643934   2.933403
     9  H    3.847136   3.219538   3.319074   2.041032   3.928048
    10  H    2.904021   2.745342   2.812546   2.080964   3.766617
    11  C    4.273337   3.746364   2.564744   3.719878   4.586349
    12  H    3.872360   2.917752   2.127699   2.706806   3.378631
    13  H    3.910008   3.503891   2.080177   4.423925   3.940296
    14  C    3.157185   3.106808   2.517786   4.474845   3.156118
    15  C    5.006642   4.638731   3.680181   4.358743   5.587353
    16  H    4.818763   4.274415   2.862639   4.507758   4.989172
    17  H    2.572025   2.701190   2.697510   4.129837   2.568147
    18  H    4.063770   3.844775   3.218119   5.176366   3.653078
    19  H    3.690438   3.880235   3.244363   5.226147   4.082030
    20  H    4.963564   4.667310   4.032424   4.113449   5.659288
    21  H    5.945276   5.626414   4.553488   5.430725   6.568320
                    6          7          8          9         10
     6  C    0.000000
     7  C    1.530871   0.000000
     8  C    3.640447   2.559187   0.000000
     9  H    1.089807   2.209909   4.591317   0.000000
    10  H    1.099598   2.175487   3.950243   1.781903   0.000000
    11  C    2.586698   1.498635   3.072984   3.067135   2.753548
    12  H    2.131346   1.099323   3.031721   2.401891   3.041879
    13  H    4.124245   2.787615   1.085401   4.980954   4.405528
    14  C    4.817132   3.961989   1.498301   5.816416   5.055019
    15  C    3.009637   2.525717   4.252917   3.255089   2.810632
    16  H    3.543759   2.192098   2.911653   4.054083   3.768727
    17  H    4.763341   4.223699   2.166245   5.766707   4.993235
    18  H    5.562051   4.571058   2.145903   6.486317   5.938598
    19  H    5.438110   4.599832   2.147251   6.482671   5.482353
    20  H    2.712084   2.819993   4.838451   2.768405   2.316373
    21  H    4.091431   3.500878   4.908323   4.299773   3.829714
                   11         12         13         14         15
    11  C    0.000000
    12  H    2.108502   0.000000
    13  H    2.795243   3.172567   0.000000
    14  C    4.547181   4.388952   2.194603   0.000000
    15  C    1.327706   3.157425   3.975418   5.669112   0.000000
    16  H    1.085561   2.538301   2.272310   4.341136   2.075471
    17  H    5.062446   4.666995   3.102929   1.090604   6.132328
    18  H    5.152319   4.773766   2.560000   1.093717   6.364737
    19  H    4.921842   5.171492   2.541882   1.094033   5.911357
    20  H    2.118725   3.483819   4.761994   6.207251   1.083621
    21  H    2.100411   4.053048   4.433828   6.286535   1.082439
                   16         17         18         19         20
    16  H    0.000000
    17  H    5.057143   0.000000
    18  H    4.787336   1.764854   0.000000
    19  H    4.649814   1.768089   1.751698   0.000000
    20  H    3.062554   6.507531   6.984056   6.485158   0.000000
    21  H    2.398751   6.864210   6.938594   6.400416   1.841226
                   21
    21  H    0.000000
 Symmetry turned off by external request.
 Stoichiometry    C8H12O
 Framework group  C1[X(C8H12O)]
 Deg. of freedom    57
 Full point group                 C1      NOp   1
 Rotational constants (GHZ):           2.1685124           1.3232850           0.8725624
 Standard basis: def2TZVP (5D, 7F)
 The following finite field(s) will be applied:
 An electric field of             -0.0026  0.0026 -0.0034
   351 basis functions,   555 primitive gaussians,   396 cartesian basis functions
    34 alpha electrons       34 beta electrons
       nuclear repulsion energy       444.4593066974 Hartrees.
 NAtoms=   21 NActive=   21 NUniq=   21 SFac= 1.00D+00 NAtFMM=   60 NAOKFM=F Big=F
 Integral buffers will be    131072 words long.
 Raffenetti 2 integral format.
 Two-electron integral symmetry is turned off.
 One-electron integrals computed using PRISM.
   1 Symmetry operations used in ECPInt.
 ECPInt:  NShTT=   10878 NPrTT=   32112 LenC2=   10556 LenP2D=   24697.
 LDataN:  DoStor=T MaxTD1= 6 Len=  172
 NBasis=   351 RedAO= T EigKep=  6.98D-05  NBF=   351
 NBsUse=   351 1.00D-06 EigRej= -1.00D+00 NBFU=   351
 The nuclear repulsion energy is now       443.4643177687 hartrees.
 Initial guess from the checkpoint file:  "checkpoint.chk"
 B after Tr=     0.008829   -0.001093    0.001017
         Rot=    0.999998    0.000403    0.002052    0.000482 Ang=   0.25 deg.
 Requested convergence on RMS density matrix=1.00D-08 within 128 cycles.
 Requested convergence on MAX density matrix=1.00D-06.
 Requested convergence on             energy=1.00D-06.
 No special actions if energy rises.
 SCF Done:  E(RB3LYP) =  -387.394554844     A.U. after    8 cycles
            NFock=  8  Conv=0.76D-08     -V/T= 2.0053
   1 Symmetry operations used in ECPInt.
 ECPInt:  NShTT=   10878 NPrTT=   32112 LenC2=   10556 LenP2D=   24697.
 LDataN:  DoStor=T MaxTD1= 7 Len=  274
 Calling FoFJK, ICntrl=      2127 FMM=F ISym2X=0 I1Cent= 0 IOpClX= 0 NMat=1 NMatS=1 NMatT=0.
 -------------------------------------------------------------------
 Center     Atomic                   Forces (Hartrees/Bohr)
 Number     Number              X              Y              Z
 -------------------------------------------------------------------
      1        1           0.000732529   -0.000707697    0.000033355
      2        6          -0.000398758    0.000378026   -0.000188224
      3        6          -0.000146387   -0.000116438   -0.000053187
      4        8          -0.000146436    0.000446631    0.000007744
      5        1           0.000037404    0.000002422    0.000074254
      6        6           0.000192195   -0.000001643    0.000138299
      7        6          -0.000307858   -0.000004707    0.000003325
      8        6          -0.000062020    0.000012876   -0.000108144
      9        1          -0.000003669   -0.000006848    0.000034764
     10        1          -0.000048023    0.000023411   -0.000024604
     11        6           0.000018570    0.000031232   -0.000068054
     12        1           0.000083869   -0.000053692    0.000004730
     13        1          -0.000021049   -0.000046778    0.000099595
     14        6          -0.000051772    0.000030119   -0.000115806
     15        6           0.000069053    0.000059834   -0.000148709
     16        1          -0.000018432    0.000011560    0.000063903
     17        1           0.000024740   -0.000006900    0.000021290
     18        1           0.000026683    0.000036097    0.000062352
     19        1           0.000034440   -0.000058345    0.000026723
     20        1          -0.000002445   -0.000017216    0.000060529
     21        1          -0.000012633   -0.000011943    0.000075867
 -------------------------------------------------------------------
 Cartesian Forces:  Max     0.000732529 RMS     0.000174380
 -----------------------------------------------------------------------------------------------
                       Internal Coordinate Forces (Hartree/Bohr or radian)
  Cent   Atom   N1       Length/X         N2         Alpha/Y        N3         Beta/Z          J
 -----------------------------------------------------------------------------------------------
      1  H 
      2  C        1  -0.000033(     1)
      3  C        2  -0.000368(     2)      1   0.000687(    21)
      4  O        2   0.000441(     3)      1   0.000272(    22)      3  -0.000677(    40)     0
      5  H        2   0.000001(     4)      1   0.000161(    23)      3   0.000057(    41)     0
      6  C        4   0.000142(     5)      2  -0.000090(    24)      1  -0.000269(    42)     0
      7  C        3  -0.000007(     6)      2  -0.000506(    25)      1   0.000047(    43)     0
      8  C        3  -0.000009(     7)      2   0.000055(    26)      7  -0.000200(    44)     0
      9  H        6   0.000019(     8)      4  -0.000012(    27)      2   0.000147(    45)     0
     10  H        6   0.000017(     9)      4  -0.000068(    28)      9   0.000089(    46)     0
     11  C        7   0.000079(    10)      3   0.000100(    29)      2   0.000071(    47)     0
     12  H        7  -0.000005(    11)      3  -0.000073(    30)     11   0.000185(    48)     0
     13  H        8   0.000017(    12)      3  -0.000008(    31)      2   0.000102(    49)     0
     14  C        8  -0.000002(    13)      3   0.000183(    32)     13  -0.000097(    50)     0
     15  C       11   0.000044(    14)      7   0.000130(    33)      3  -0.000056(    51)     0
     16  H       11  -0.000001(    15)      7  -0.000025(    34)     15  -0.000123(    52)     0
     17  H       14  -0.000031(    16)      8   0.000008(    35)      3   0.000080(    53)     0
     18  H       14   0.000011(    17)      8  -0.000155(    36)     17  -0.000023(    54)     0
     19  H       14   0.000008(    18)      8   0.000063(    37)     17   0.000127(    55)     0
     20  H       15  -0.000027(    19)     11  -0.000039(    38)      7  -0.000032(    56)     0
     21  H       15  -0.000011(    20)     11  -0.000062(    39)     20  -0.000124(    57)     0
 -----------------------------------------------------------------------------------------------
 Internal  Forces:  Max     0.000686619 RMS     0.000188620

 GradGradGradGradGradGradGradGradGradGradGradGradGradGradGradGradGradGrad
 Berny optimization.
 Search for a local minimum.
 Step number   2 out of a maximum of   67
 All quantities printed in internal units (Hartrees-Bohrs-Radians)
 Update second derivatives using D2CorN and points    1    2
 DE= -1.63D-05 DEPred=-1.28D-05 R= 1.27D+00
 TightC=F SS=  1.41D+00  RLast= 1.57D-02 DXNew= 1.6818D-01 4.6987D-02
 Trust test= 1.27D+00 RLast= 1.57D-02 DXMaxT set to 1.00D-01
 ITU=  1  0
     Eigenvalues ---    0.02876   0.03551   0.03831   0.04796   0.05854
     Eigenvalues ---    0.07298   0.08073   0.08566   0.10232   0.11046
     Eigenvalues ---    0.14253   0.15097   0.15992   0.16531   0.16916
     Eigenvalues ---    0.19302   0.21424   0.21871   0.24013   0.24200
     Eigenvalues ---    0.24974   0.26504   0.28980   0.29770   0.30924
     Eigenvalues ---    0.31938   0.32498   0.32531   0.33575   0.33740
     Eigenvalues ---    0.33783   0.33796   0.34345   0.34354   0.34543
     Eigenvalues ---    0.34787   0.34854   0.35295   0.35323   0.35581
     Eigenvalues ---    0.35619   0.35697   0.36111   0.39682   0.40183
     Eigenvalues ---    0.40792   0.42834   0.48560   0.54798   0.55512
     Eigenvalues ---    0.60039   0.60061   0.62907   0.84420   1.49426
     Eigenvalues ---    2.78586  10.76030
 RFO step:  Lambda=-5.92270789D-06 EMin= 2.87610252D-02
 Quartic linear search produced a step of  0.37518.
 Variable       Old X    -DE/DX   Delta X   Delta X   Delta X     New X
                                 (Linear)    (Quad)   (Total)
    R2        2.07809  -0.00003   0.00036  -0.00049  -0.00012   2.07796
    R3        2.86437  -0.00037   0.00016  -0.00123  -0.00107   2.86330
    R4        2.70014   0.00044   0.00060   0.00141   0.00201   2.70215
    R5        2.06415   0.00000  -0.00003   0.00003  -0.00000   2.06415
    R6        2.69097   0.00014   0.00036  -0.00015   0.00021   2.69118
    R7        2.88408  -0.00001  -0.00002   0.00001  -0.00001   2.88407
    R8        2.50891  -0.00001  -0.00004   0.00001  -0.00003   2.50888
    R9        2.05944   0.00002   0.00013  -0.00003   0.00010   2.05954
   R10        2.07794   0.00002   0.00042  -0.00030   0.00012   2.07806
   R11        2.83201   0.00008  -0.00015   0.00052   0.00037   2.83238
   R12        2.07742  -0.00000  -0.00011   0.00008  -0.00003   2.07739
   R13        2.05111   0.00002  -0.00018   0.00024   0.00006   2.05117
   R14        2.83138  -0.00000  -0.00032   0.00029  -0.00004   2.83134
   R15        2.50900   0.00004   0.00003   0.00008   0.00011   2.50912
   R16        2.05141  -0.00000  -0.00021   0.00018  -0.00002   2.05139
   R17        2.06094  -0.00003   0.00023  -0.00034  -0.00012   2.06082
   R18        2.06683   0.00001  -0.00025   0.00028   0.00003   2.06686
   R19        2.06742   0.00001  -0.00004   0.00008   0.00004   2.06746
   R20        2.04775  -0.00003   0.00025  -0.00035  -0.00010   2.04765
   R21        2.04551  -0.00001  -0.00003  -0.00002  -0.00005   2.04547
    A3        1.94593   0.00069   0.00089   0.00134   0.00223   1.94815
    A4        1.91329   0.00027  -0.00193   0.00066  -0.00127   1.91202
    A5        1.88616   0.00016   0.00022   0.00003   0.00025   1.88641
    A6        1.87753  -0.00009  -0.00006   0.00141   0.00135   1.87888
    A7        1.85359  -0.00051   0.00015   0.00031   0.00045   1.85405
    A8        2.20724   0.00005  -0.00005  -0.00015  -0.00019   2.20705
    A9        1.88199  -0.00001  -0.00004  -0.00004  -0.00008   1.88191
   A10        1.92750  -0.00007  -0.00023  -0.00023  -0.00046   1.92703
   A11        2.02397   0.00010  -0.00001   0.00000  -0.00001   2.02396
   A12        1.87008  -0.00007   0.00046  -0.00089  -0.00043   1.86965
   A13        2.07262  -0.00001   0.00009  -0.00045  -0.00036   2.07226
   A14        2.19700   0.00018   0.00024   0.00052   0.00076   2.19776
   A15        2.20892   0.00013  -0.00011   0.00058   0.00047   2.20938
   A16        2.00912  -0.00002   0.00006  -0.00033  -0.00028   2.00884
   A17        1.96603   0.00001   0.00020   0.00028   0.00048   1.96651
   A18        1.93380  -0.00016  -0.00032  -0.00123  -0.00156   1.93224
   A19        1.93536   0.00006  -0.00028   0.00101   0.00073   1.93608
   A20        2.14046  -0.00004  -0.00019   0.00006  -0.00012   2.14034
   A21        2.11058  -0.00006  -0.00010  -0.00009  -0.00020   2.11038
    D4        2.05120  -0.00068  -0.00013   0.00049   0.00036   2.05157
    D5       -2.18709   0.00006  -0.00107   0.00038  -0.00069  -2.18778
    D6       -1.68834  -0.00027  -0.00335  -0.00389  -0.00724  -1.69558
    D7        2.06415   0.00005   0.00050   0.00311   0.00362   2.06777
    D8       -3.13639  -0.00020  -0.00151  -0.00225  -0.00376  -3.14015
    D9       -2.77770   0.00015   0.00228   0.00286   0.00515  -2.77255
   D10       -2.07594   0.00009   0.00010   0.00010   0.00021  -2.07573
   D11       -2.57707   0.00007  -0.00014  -0.00132  -0.00146  -2.57852
   D12       -2.09494   0.00018  -0.00007   0.00149   0.00142  -2.09352
   D13        3.12985   0.00010   0.00112   0.00332   0.00444   3.13429
   D14       -3.15574  -0.00010  -0.00171  -0.00194  -0.00365  -3.15939
   D15        2.22269  -0.00006  -0.00034  -0.00024  -0.00058   2.22211
   D16        3.10560  -0.00012  -0.00088  -0.00074  -0.00163   3.10398
   D17        0.03933   0.00008   0.00025   0.00081   0.00106   0.04038
   D18       -2.10911  -0.00002  -0.00011   0.00064   0.00053  -2.10858
   D19        2.11619   0.00013   0.00082   0.00089   0.00171   2.11790
   D20       -0.01446  -0.00003   0.00032   0.00037   0.00069  -0.01377
   D21        3.13086  -0.00012  -0.00141  -0.00147  -0.00288   3.12798
         Item               Value     Threshold  Converged?
 Maximum Force            0.000687     0.000450     NO 
 RMS     Force            0.000189     0.000300     YES
 Maximum Displacement     0.007239     0.001800     NO 
 RMS     Displacement     0.001771     0.001200     NO 
 Predicted change in Energy=-3.713317D-06
 GradGradGradGradGradGradGradGradGradGradGradGradGradGradGradGradGradGrad

 ---------------------------------------------------------------------------------------------------
                            Z-MATRIX (ANGSTROMS AND DEGREES)
   CD    Cent   Atom    N1       Length/X        N2       Alpha/Y        N3        Beta/Z          J
 ---------------------------------------------------------------------------------------------------
      1      1  H 
      2      2  C        1   1.099611(     1)
      3      3  C        2   1.515192(     2)      1  111.621(    21)
      4      4  O        2   1.429917(     3)      1  109.551(    22)      3  117.546(    40)      0
      5      5  H        2   1.092299(     4)      1  108.083(    23)      3 -125.351(    41)      0
      6      6  C        4   1.424110(     5)      2  107.652(    24)      1  -97.150(    42)      0
      7      7  C        3   1.526182(     6)      2  106.229(    25)      1  118.474(    43)      0
      8      8  C        3   1.327644(     7)      2  126.455(    26)      7 -179.917(    44)      0
      9      9  H        6   1.089861(     8)      4  107.825(    27)      2 -158.856(    45)      0
     10     10  H        6   1.099663(     9)      4  110.411(    28)      9 -118.931(    46)      0
     11     11  C        7   1.498831(    10)      3  115.964(    29)      2 -147.739(    47)      0
     12     12  H        7   1.099307(    11)      3  107.123(    30)     11 -119.950(    48)      0
     13     13  H        8   1.085433(    12)      3  118.732(    31)      2  179.581(    49)      0
     14     14  C        8   1.498282(    13)      3  125.922(    32)     13 -181.020(    50)      0
     15     15  C       11   1.327767(    14)      7  126.588(    33)      3  127.317(    51)      0
     16     16  H       11   1.085548(    15)      7  115.098(    34)     15  177.845(    52)      0
     17     17  H       14   1.090541(    16)      8  112.673(    35)      3    2.314(    53)      0
     18     18  H       14   1.093733(    17)      8  110.709(    36)     17 -120.813(    54)      0
     19     19  H       14   1.094055(    18)      8  110.929(    37)     17  121.347(    55)      0
     20     20  H       15   1.083568(    19)     11  122.632(    38)      7   -0.789(    56)      0
     21     21  H       15   1.082415(    20)     11  120.916(    39)     20  179.220(    57)      0
 ---------------------------------------------------------------------------------------------------
                         Z-Matrix orientation:                         
 ---------------------------------------------------------------------
 Center     Atomic      Atomic             Coordinates (Angstroms)
 Number     Number       Type             X           Y           Z
 ---------------------------------------------------------------------
      1          1           0        0.000000    0.000000    0.000000
      2          6           0        0.000000    0.000000    1.099611
      3          6           0        1.408587    0.000000    1.657904
      4          8           0       -0.623155    1.194724    1.578126
      5          1           0       -0.600765   -0.846903    1.438659
      6          6           0        0.408654    2.128126    1.881802
      7          6           0        1.547688    1.288104    2.464546
      8          6           0        2.330041   -0.937947    1.474013
      9          1           0        0.000882    2.861710    2.577052
     10          1           0        0.738449    2.645575    0.969256
     11          6           0        2.913547    1.904936    2.485560
     12          1           0        1.277092    1.050396    3.503175
     13          1           0        3.306497   -0.806525    1.929456
     14          6           0        2.150258   -2.206548    0.697368
     15          6           0        3.219508    3.160860    2.182235
     16          1           0        3.710845    1.247028    2.817055
     17          1           0        1.163177   -2.283206    0.240122
     18          1           0        2.288277   -3.078335    1.343271
     19          1           0        2.899482   -2.288820   -0.095633
     20          1           0        2.476355    3.883278    1.866077
     21          1           0        4.239004    3.517546    2.253115
 ---------------------------------------------------------------------
                    Distance matrix (angstroms):
                    1          2          3          4          5
     1  H    0.000000
     2  C    1.099611   0.000000
     3  C    2.175491   1.515192   0.000000
     4  O    2.075131   1.429917   2.358326   0.000000
     5  H    1.774233   1.092299   2.191531   2.046507   0.000000
     6  C    2.870035   2.303854   2.361973   1.424110   3.172712
     7  C    3.182536   2.432611   1.526182   2.346704   3.197897
     8  C    2.912310   2.539491   1.327644   3.644241   2.932434
     9  H    3.851050   3.220593   3.319013   2.041107   3.925777
    10  H    2.912702   2.749794   2.814674   2.080783   3.769779
    11  C    4.277329   3.746784   2.564897   3.719690   4.584649
    12  H    3.873826   2.917432   2.127356   2.708797   3.374657
    13  H    3.912314   3.503148   2.079972   4.423866   3.938173
    14  C    3.158921   3.107130   2.518245   4.476181   3.156941
    15  C    5.011827   4.639864   3.680407   4.358520   5.586551
    16  H    4.822991   4.274934   2.863407   4.507908   4.987434
    17  H    2.573649   2.702727   2.698771   4.132461   2.571177
    18  H    4.064078   3.843400   3.216985   5.175965   3.651705
    19  H    3.695246   3.882564   3.245976   5.229294   4.084717
    20  H    4.969349   4.669010   4.032780   4.113175   5.659149
    21  H    5.951371   5.627864   4.553973   5.430627   6.567733
                    6          7          8          9         10
     6  C    0.000000
     7  C    1.530563   0.000000
     8  C    3.641266   2.559010   0.000000
     9  H    1.089861   2.209412   4.591195   0.000000
    10  H    1.099663   2.175658   3.953426   1.782057   0.000000
    11  C    2.586276   1.498831   3.073383   3.067149   2.752958
    12  H    2.131791   1.099307   3.029803   2.401515   3.042282
    13  H    4.124553   2.786969   1.085433   4.980202   4.408384
    14  C    4.819280   3.962145   1.498282   5.817238   5.060654
    15  C    3.009601   2.526242   4.253580   3.256520   2.809357
    16  H    3.543373   2.192076   2.912815   4.053224   3.769009
    17  H    4.766998   4.224946   2.166514   5.769084   5.000492
    18  H    5.561495   4.568535   2.144784   6.483712   5.941801
    19  H    5.442783   4.601766   2.147769   6.486377   5.491112
    20  H    2.712230   2.820553   4.839352   2.770750   2.314415
    21  H    4.091447   3.501186   4.909435   4.300783   3.829166
                   11         12         13         14         15
    11  C    0.000000
    12  H    2.108023   0.000000
    13  H    2.795653   3.169105   0.000000
    14  C    4.548025   4.386644   2.194309   0.000000
    15  C    1.327767   3.157835   3.976381   5.670731   0.000000
    16  H    1.085548   2.536253   2.273413   4.342313   2.075370
    17  H    5.064219   4.666197   3.102943   1.090541   6.134994
    18  H    5.150609   4.768029   2.557637   1.093733   6.363851
    19  H    4.924463   5.170486   2.542409   1.094055   5.915243
    20  H    2.118664   3.484759   4.763130   6.209525   1.083568
    21  H    2.100329   4.052457   4.435303   6.288756   1.082415
                   16         17         18         19         20
    16  H    0.000000
    17  H    5.059026   0.000000
    18  H    4.785865   1.764941   0.000000
    19  H    4.652341   1.768480   1.751385   0.000000
    20  H    3.062375   6.511045   6.983749   6.490157   0.000000
    21  H    2.398382   6.867429   6.938213   6.405062   1.841328
                   21
    21  H    0.000000
 Symmetry turned off by external request.
 Stoichiometry    C8H12O
 Framework group  C1[X(C8H12O)]
 Deg. of freedom    57
 Full point group                 C1      NOp   1
 Rotational constants (GHZ):           2.1688207           1.3226694           0.8721939
 Standard basis: def2TZVP (5D, 7F)
 The following finite field(s) will be applied:
 An electric field of             -0.0026  0.0026 -0.0034
   351 basis functions,   555 primitive gaussians,   396 cartesian basis functions
    34 alpha electrons       34 beta electrons
       nuclear repulsion energy       444.4131344530 Hartrees.
 NAtoms=   21 NActive=   21 NUniq=   21 SFac= 1.00D+00 NAtFMM=   60 NAOKFM=F Big=F
 Integral buffers will be    131072 words long.
 Raffenetti 2 integral format.
 Two-electron integral symmetry is turned off.
 One-electron integrals computed using PRISM.
   1 Symmetry operations used in ECPInt.
 ECPInt:  NShTT=   10878 NPrTT=   32112 LenC2=   10556 LenP2D=   24694.
 LDataN:  DoStor=T MaxTD1= 6 Len=  172
 NBasis=   351 RedAO= T EigKep=  6.99D-05  NBF=   351
 NBsUse=   351 1.00D-06 EigRej= -1.00D+00 NBFU=   351
 The nuclear repulsion energy is now       443.4156244312 hartrees.
 Initial guess from the checkpoint file:  "checkpoint.chk"
 B after Tr=     0.007793    0.006102   -0.000143
         Rot=    0.999998   -0.001058    0.001846    0.000117 Ang=  -0.24 deg.
 Requested convergence on RMS density matrix=1.00D-08 within 128 cycles.
 Requested convergence on MAX density matrix=1.00D-06.
 Requested convergence on             energy=1.00D-06.
 No special actions if energy rises.
 SCF Done:  E(RB3LYP) =  -387.394559702     A.U. after    8 cycles
            NFock=  8  Conv=0.42D-08     -V/T= 2.0053
   1 Symmetry operations used in ECPInt.
 ECPInt:  NShTT=   10878 NPrTT=   32112 LenC2=   10556 LenP2D=   24694.
 LDataN:  DoStor=T MaxTD1= 7 Len=  274
 Calling FoFJK, ICntrl=      2127 FMM=F ISym2X=0 I1Cent= 0 IOpClX= 0 NMat=1 NMatS=1 NMatT=0.
 -------------------------------------------------------------------
 Center     Atomic                   Forces (Hartrees/Bohr)
 Number     Number              X              Y              Z
 -------------------------------------------------------------------
      1        1           0.000857568   -0.000777969    0.000071661
      2        6          -0.000771898    0.001003553   -0.000134064
      3        6          -0.000083353   -0.000200840   -0.000013880
      4        8          -0.000120596    0.000074713   -0.000007487
      5        1          -0.000001991   -0.000010925    0.000044726
      6        6           0.000095869   -0.000157552   -0.000035377
      7        6          -0.000021286    0.000073221   -0.000002934
      8        6           0.000025366   -0.000003800   -0.000007143
      9        1           0.000002316   -0.000005219   -0.000001179
     10        1          -0.000011543    0.000008827    0.000054242
     11        6           0.000023355    0.000045443   -0.000001454
     12        1           0.000003404   -0.000016077    0.000000233
     13        1           0.000006855    0.000006258    0.000000317
     14        6           0.000026152    0.000010738   -0.000008463
     15        6          -0.000014090   -0.000015931    0.000023244
     16        1           0.000003256   -0.000017147    0.000005558
     17        1           0.000008674    0.000009580   -0.000018074
     18        1          -0.000020430   -0.000024299    0.000020384
     19        1          -0.000013870    0.000007115    0.000018674
     20        1           0.000004784    0.000000546   -0.000017514
     21        1           0.000001459   -0.000010235    0.000008530
 -------------------------------------------------------------------
 Cartesian Forces:  Max     0.001003553 RMS     0.000221455
 -----------------------------------------------------------------------------------------------
                       Internal Coordinate Forces (Hartree/Bohr or radian)
  Cent   Atom   N1       Length/X         N2         Alpha/Y        N3         Beta/Z          J
 -----------------------------------------------------------------------------------------------
      1  H 
      2  C        1  -0.000072(     1)
      3  C        2  -0.000043(     2)      1   0.000258(    21)
      4  O        2  -0.000048(     3)      1   0.000248(    22)      3  -0.000265(    40)     0
      5  H        2   0.000023(     4)      1   0.000081(    23)      3   0.000009(    41)     0
      6  C        4  -0.000034(     5)      2  -0.000400(    24)      1  -0.000227(    42)     0
      7  C        3   0.000059(     6)      2  -0.000013(    25)      1  -0.000020(    43)     0
      8  C        3   0.000018(     7)      2   0.000074(    26)      7  -0.000012(    44)     0
      9  H        6  -0.000005(     8)      4  -0.000001(    27)      2   0.000049(    45)     0
     10  H        6  -0.000044(     9)      4   0.000054(    28)      9   0.000044(    46)     0
     11  C        7   0.000018(    10)      3   0.000010(    29)      2  -0.000101(    47)     0
     12  H        7   0.000003(    11)      3  -0.000030(    30)     11   0.000014(    48)     0
     13  H        8   0.000007(    12)      3  -0.000007(    31)      2   0.000043(    49)     0
     14  C        8  -0.000009(    13)      3  -0.000003(    32)     13   0.000051(    50)     0
     15  C       11  -0.000029(    14)      7   0.000036(    33)      3  -0.000017(    51)     0
     16  H       11   0.000014(    15)      7  -0.000023(    34)     15   0.000001(    52)     0
     17  H       14  -0.000001(    16)      8   0.000001(    35)      3   0.000089(    53)     0
     18  H       14   0.000029(    17)      8   0.000005(    36)     17   0.000047(    54)     0
     19  H       14  -0.000024(    18)      8  -0.000012(    37)     17  -0.000000(    55)     0
     20  H       15   0.000002(    19)     11   0.000011(    38)      7  -0.000039(    56)     0
     21  H       15  -0.000001(    20)     11  -0.000025(    39)     20  -0.000009(    57)     0
 -----------------------------------------------------------------------------------------------
 Internal  Forces:  Max     0.000399980 RMS     0.000091841

 GradGradGradGradGradGradGradGradGradGradGradGradGradGradGradGradGradGrad
 Berny optimization.
 Search for a local minimum.
 Step number   3 out of a maximum of   67
 All quantities printed in internal units (Hartrees-Bohrs-Radians)
 Update second derivatives using D2CorN and points    1    2    3
 DE= -4.86D-06 DEPred=-3.71D-06 R= 1.31D+00
 TightC=F SS=  1.41D+00  RLast= 1.34D-02 DXNew= 1.6818D-01 4.0120D-02
 Trust test= 1.31D+00 RLast= 1.34D-02 DXMaxT set to 1.00D-01
 ITU=  1  1  0
     Eigenvalues ---    0.02183   0.03416   0.03807   0.04856   0.05848
     Eigenvalues ---    0.07360   0.08109   0.08588   0.10231   0.10969
     Eigenvalues ---    0.14249   0.15099   0.15974   0.16532   0.16917
     Eigenvalues ---    0.19242   0.21419   0.21856   0.24015   0.24204
     Eigenvalues ---    0.24979   0.26458   0.28955   0.29766   0.30913
     Eigenvalues ---    0.31936   0.32496   0.32537   0.33590   0.33740
     Eigenvalues ---    0.33781   0.33829   0.34346   0.34360   0.34544
     Eigenvalues ---    0.34789   0.34854   0.35296   0.35324   0.35565
     Eigenvalues ---    0.35619   0.35697   0.36116   0.39649   0.40184
     Eigenvalues ---    0.40784   0.42773   0.48557   0.54792   0.55511
     Eigenvalues ---    0.60039   0.60062   0.62882   0.84438   1.49463
     Eigenvalues ---    2.78590  10.75982
 RFO step:  Lambda=-1.07342174D-06 EMin= 2.18268876D-02
 Quartic linear search produced a step of  0.27966.
 Variable       Old X    -DE/DX   Delta X   Delta X   Delta X     New X
                                 (Linear)    (Quad)   (Total)
    R2        2.07796  -0.00007  -0.00003  -0.00027  -0.00031   2.07766
    R3        2.86330  -0.00004  -0.00030   0.00006  -0.00024   2.86306
    R4        2.70215  -0.00005   0.00056  -0.00004   0.00052   2.70268
    R5        2.06415   0.00002  -0.00000   0.00009   0.00009   2.06424
    R6        2.69118  -0.00003   0.00006   0.00005   0.00011   2.69129
    R7        2.88407   0.00006  -0.00000  -0.00016  -0.00016   2.88390
    R8        2.50888   0.00002  -0.00001   0.00004   0.00003   2.50892
    R9        2.05954  -0.00001   0.00003  -0.00003   0.00000   2.05954
   R10        2.07806  -0.00004   0.00003  -0.00018  -0.00015   2.07791
   R11        2.83238   0.00002   0.00010   0.00003   0.00014   2.83252
   R12        2.07739   0.00000  -0.00001   0.00001   0.00000   2.07739
   R13        2.05117   0.00001   0.00002   0.00002   0.00003   2.05121
   R14        2.83134  -0.00001  -0.00001  -0.00004  -0.00005   2.83129
   R15        2.50912  -0.00003   0.00003  -0.00008  -0.00005   2.50906
   R16        2.05139   0.00001  -0.00001   0.00006   0.00005   2.05144
   R17        2.06082  -0.00000  -0.00003   0.00001  -0.00002   2.06080
   R18        2.06686   0.00003   0.00001   0.00011   0.00011   2.06697
   R19        2.06746  -0.00002   0.00001  -0.00010  -0.00009   2.06738
   R20        2.04765   0.00000  -0.00003   0.00003  -0.00000   2.04764
   R21        2.04547  -0.00000  -0.00001   0.00000  -0.00001   2.04546
    A3        1.94815   0.00026   0.00062   0.00057   0.00119   1.94934
    A4        1.91202   0.00025  -0.00035   0.00007  -0.00028   1.91174
    A5        1.88641   0.00008   0.00007  -0.00014  -0.00007   1.88634
    A6        1.87888  -0.00040   0.00038  -0.00039  -0.00001   1.87887
    A7        1.85405  -0.00001   0.00013   0.00005   0.00018   1.85422
    A8        2.20705   0.00007  -0.00005   0.00014   0.00009   2.20714
    A9        1.88191  -0.00000  -0.00002  -0.00029  -0.00032   1.88159
   A10        1.92703   0.00005  -0.00013   0.00040   0.00027   1.92730
   A11        2.02396   0.00001  -0.00000   0.00009   0.00009   2.02405
   A12        1.86965  -0.00003  -0.00012   0.00002  -0.00010   1.86955
   A13        2.07226  -0.00001  -0.00010   0.00004  -0.00006   2.07220
   A14        2.19776  -0.00000   0.00021  -0.00010   0.00011   2.19788
   A15        2.20938   0.00004   0.00013   0.00004   0.00017   2.20955
   A16        2.00884  -0.00002  -0.00008  -0.00006  -0.00014   2.00870
   A17        1.96651   0.00000   0.00013  -0.00009   0.00004   1.96655
   A18        1.93224   0.00001  -0.00044   0.00014  -0.00030   1.93195
   A19        1.93608  -0.00001   0.00020  -0.00006   0.00014   1.93623
   A20        2.14034   0.00001  -0.00003   0.00012   0.00008   2.14042
   A21        2.11038  -0.00003  -0.00006  -0.00011  -0.00016   2.11022
    D4        2.05157  -0.00027   0.00010   0.00071   0.00081   2.05238
    D5       -2.18778   0.00001  -0.00019   0.00020   0.00001  -2.18778
    D6       -1.69558  -0.00023  -0.00202  -0.00223  -0.00425  -1.69983
    D7        2.06777  -0.00002   0.00101   0.00203   0.00305   2.07081
    D8       -3.14015  -0.00001  -0.00105  -0.00056  -0.00161  -3.14176
    D9       -2.77255   0.00005   0.00144   0.00064   0.00207  -2.77048
   D10       -2.07573   0.00004   0.00006   0.00028   0.00034  -2.07540
   D11       -2.57852  -0.00010  -0.00041  -0.00132  -0.00172  -2.58025
   D12       -2.09352   0.00001   0.00040   0.00001   0.00040  -2.09312
   D13        3.13429   0.00004   0.00124   0.00021   0.00145   3.13574
   D14       -3.15939   0.00005  -0.00102  -0.00002  -0.00104  -3.16043
   D15        2.22211  -0.00002  -0.00016  -0.00075  -0.00091   2.22120
   D16        3.10398   0.00000  -0.00045   0.00031  -0.00014   3.10384
   D17        0.04038   0.00009   0.00030   0.00149   0.00179   0.04217
   D18       -2.10858   0.00005   0.00015  -0.00002   0.00012  -2.10845
   D19        2.11790  -0.00000   0.00048  -0.00032   0.00016   2.11806
   D20       -0.01377  -0.00004   0.00019  -0.00035  -0.00015  -0.01392
   D21        3.12798  -0.00001  -0.00081   0.00056  -0.00024   3.12773
         Item               Value     Threshold  Converged?
 Maximum Force            0.000400     0.000450     YES
 RMS     Force            0.000092     0.000300     YES
 Maximum Displacement     0.004251     0.001800     NO 
 RMS     Displacement     0.000918     0.001200     YES
 Predicted change in Energy=-7.019470D-07
 GradGradGradGradGradGradGradGradGradGradGradGradGradGradGradGradGradGrad

 ---------------------------------------------------------------------------------------------------
                            Z-MATRIX (ANGSTROMS AND DEGREES)
   CD    Cent   Atom    N1       Length/X        N2       Alpha/Y        N3        Beta/Z          J
 ---------------------------------------------------------------------------------------------------
      1      1  H 
      2      2  C        1   1.099450(     1)
      3      3  C        2   1.515067(     2)      1  111.689(    21)
      4      4  O        2   1.430194(     3)      1  109.535(    22)      3  117.593(    40)      0
      5      5  H        2   1.092348(     4)      1  108.079(    23)      3 -125.350(    41)      0
      6      6  C        4   1.424168(     5)      2  107.651(    24)      1  -97.393(    42)      0
      7      7  C        3   1.526096(     6)      2  106.239(    25)      1  118.649(    43)      0
      8      8  C        3   1.327662(     7)      2  126.460(    26)      7 -180.009(    44)      0
      9      9  H        6   1.089861(     8)      4  107.807(    27)      2 -158.737(    45)      0
     10     10  H        6   1.099584(     9)      4  110.426(    28)      9 -118.911(    46)      0
     11     11  C        7   1.498903(    10)      3  115.970(    29)      2 -147.837(    47)      0
     12     12  H        7   1.099310(    11)      3  107.117(    30)     11 -119.927(    48)      0
     13     13  H        8   1.085451(    12)      3  118.728(    31)      2  179.665(    49)      0
     14     14  C        8   1.498255(    13)      3  125.929(    32)     13 -181.080(    50)      0
     15     15  C       11   1.327740(    14)      7  126.598(    33)      3  127.265(    51)      0
     16     16  H       11   1.085574(    15)      7  115.090(    34)     15  177.837(    52)      0
     17     17  H       14   1.090531(    16)      8  112.675(    35)      3    2.416(    53)      0
     18     18  H       14   1.093793(    17)      8  110.692(    36)     17 -120.806(    54)      0
     19     19  H       14   1.094009(    18)      8  110.938(    37)     17  121.356(    55)      0
     20     20  H       15   1.083567(    19)     11  122.637(    38)      7   -0.798(    56)      0
     21     21  H       15   1.082410(    20)     11  120.906(    39)     20  179.206(    57)      0
 ---------------------------------------------------------------------------------------------------
                         Z-Matrix orientation:                         
 ---------------------------------------------------------------------
 Center     Atomic      Atomic             Coordinates (Angstroms)
 Number     Number       Type             X           Y           Z
 ---------------------------------------------------------------------
      1          1           0        0.000000    0.000000    0.000000
      2          6           0        0.000000    0.000000    1.099450
      3          6           0        1.407805    0.000000    1.659372
      4          8           0       -0.624311    1.194568    1.577673
      5          1           0       -0.600800   -0.846964    1.438441
      6          6           0        0.406989    2.126881    1.886650
      7          6           0        1.544745    1.285831    2.469838
      8          6           0        2.330064   -0.937164    1.475390
      9          1           0       -0.002577    2.858212    2.583218
     10          1           0        0.738918    2.647465    0.976760
     11          6           0        2.910521    1.902819    2.496114
     12          1           0        1.271892    1.045067    3.507173
     13          1           0        3.305432   -0.806347    1.933371
     14          6           0        2.152319   -2.204649    0.696507
     15          6           0        3.217429    3.159296    2.196170
     16          1           0        3.706809    1.244285    2.828877
     17          1           0        1.166654   -2.280449    0.236100
     18          1           0        2.288033   -3.077192    1.341979
     19          1           0        2.903971   -2.286284   -0.094196
     20          1           0        2.475345    3.882380    1.879032
     21          1           0        4.236703    3.515746    2.271233
 ---------------------------------------------------------------------
                    Distance matrix (angstroms):
                    1          2          3          4          5
     1  H    0.000000
     2  C    1.099450   0.000000
     3  C    2.176104   1.515067   0.000000
     4  O    2.075045   1.430194   2.358636   0.000000
     5  H    1.774098   1.092348   2.191039   2.046410   0.000000
     6  C    2.872057   2.304115   2.361548   1.424168   3.171795
     7  C    3.184289   2.432604   1.526096   2.347146   3.196242
     8  C    2.912773   2.539450   1.327662   3.644596   2.932485
     9  H    3.852583   3.220396   3.318440   2.040927   3.923864
    10  H    2.917042   2.751386   2.814683   2.080961   3.770813
    11  C    4.280472   3.747336   2.564959   3.720241   4.583597
    12  H    3.874292   2.916677   2.127207   2.709411   3.371410
    13  H    3.913311   3.503070   2.079966   4.424146   3.937672
    14  C    3.158810   3.107301   2.518310   4.476696   3.158076
    15  C    5.015592   4.640668   3.680223   4.359090   5.585978
    16  H    4.826098   4.275465   2.863810   4.508502   4.986195
    17  H    2.572406   2.703128   2.698945   4.133173   2.573791
    18  H    4.062648   3.842268   3.216310   5.175446   3.650833
    19  H    3.697163   3.883933   3.246631   5.230704   4.087058
    20  H    4.973024   4.669899   4.032464   4.113760   5.658930
    21  H    5.955554   5.628783   4.553846   5.431239   6.567208
                    6          7          8          9         10
     6  C    0.000000
     7  C    1.530347   0.000000
     8  C    3.640841   2.558781   0.000000
     9  H    1.089861   2.208946   4.590575   0.000000
    10  H    1.099584   2.175474   3.953472   1.781834   0.000000
    11  C    2.586373   1.498903   3.073160   3.067003   2.752962
    12  H    2.131778   1.099310   3.029375   2.401137   3.042159
    13  H    4.123952   2.786579   1.085451   4.979379   4.408051
    14  C    4.819208   3.961982   1.498255   5.816856   5.061547
    15  C    3.010027   2.526388   4.252990   3.257131   2.809262
    16  H    3.543386   2.192067   2.913087   4.052734   3.769301
    17  H    4.767175   4.225032   2.166512   5.769046   5.001587
    18  H    5.560339   4.567331   2.144594   6.482020   5.941788
    19  H    5.443776   4.602366   2.147812   6.487096   5.493295
    20  H    2.712920   2.820839   4.838599   2.772165   2.313934
    21  H    4.091890   3.501229   4.908874   4.301300   3.829370
                   11         12         13         14         15
    11  C    0.000000
    12  H    2.107863   0.000000
    13  H    2.795034   3.168576   0.000000
    14  C    4.548049   4.385847   2.194254   0.000000
    15  C    1.327740   3.158134   3.975315   5.670569   0.000000
    16  H    1.085574   2.535468   2.273351   4.342647   2.075349
    17  H    5.064432   4.665839   3.102915   1.090531   6.135012
    18  H    5.149760   4.765882   2.557652   1.093793   6.362955
    19  H    4.925275   5.170246   2.542128   1.094009   5.915942
    20  H    2.118687   3.485612   4.761949   6.209238   1.083567
    21  H    2.100206   4.052396   4.434174   6.288667   1.082410
                   16         17         18         19         20
    16  H    0.000000
    17  H    5.059509   0.000000
    18  H    4.785286   1.765010   0.000000
    19  H    4.653367   1.768446   1.751432   0.000000
    20  H    3.062394   6.510942   6.982776   6.490745   0.000000
    21  H    2.398184   6.867521   6.937410   6.405856   1.841365
                   21
    21  H    0.000000
 Symmetry turned off by external request.
 Stoichiometry    C8H12O
 Framework group  C1[X(C8H12O)]
 Deg. of freedom    57
 Full point group                 C1      NOp   1
 Rotational constants (GHZ):           2.1682612           1.3227971           0.8721033
 Standard basis: def2TZVP (5D, 7F)
 The following finite field(s) will be applied:
 An electric field of             -0.0026  0.0026 -0.0034
   351 basis functions,   555 primitive gaussians,   396 cartesian basis functions
    34 alpha electrons       34 beta electrons
       nuclear repulsion energy       444.4031399291 Hartrees.
 NAtoms=   21 NActive=   21 NUniq=   21 SFac= 1.00D+00 NAtFMM=   60 NAOKFM=F Big=F
 Integral buffers will be    131072 words long.
 Raffenetti 2 integral format.
 Two-electron integral symmetry is turned off.
 One-electron integrals computed using PRISM.
   1 Symmetry operations used in ECPInt.
 ECPInt:  NShTT=   10878 NPrTT=   32112 LenC2=   10556 LenP2D=   24692.
[...]
 08613693,-0.00293692,-0.00774291,0.01732830,0.00031377,-0.00008292,-0.
 00017208,0.00629829,0.01123314,-0.01594747,0.04224625,0.11525868,-0.00
 023995,0.00109171,-0.00023725,0.00001066,0.00052461,0.00173175,0.00001
 366,-0.00067094,0.00010989,-0.00189143,-0.00502535,0.01588740,0.000095
 08,0.00006482,-0.00020182,0.05816334,0.08702854,-0.21772573,0.00300754
 ,0.00616059,-0.01277580,-0.00000502,0.00016600,0.00040849,0.00582590,0
 .00973237,-0.01705084,-0.06339098,-0.10092398,0.22854051,0.00070431,-0
 .00018703,0.00022002,-0.00156667,0.00338867,0.00211705,0.00183325,-0.0
 1244349,-0.00654593,-0.00265462,-0.00064056,-0.00167857,0.00013119,-0.
 00011361,0.00006199,-0.02267309,-0.00771111,-0.00250456,-0.19134349,-0
 .03465324,-0.00950739,0.00000447,0.00189858,0.00116808,0.00049181,0.00
 001793,0.00028333,0.00134036,-0.00138812,0.00138975,0.55462201,-0.0005
 5050,0.00019966,0.00011451,0.00118069,-0.00414351,-0.00275472,-0.02733
 983,-0.01611182,-0.00204322,0.00732038,0.00059402,0.00473311,-0.000364
 85,0.00013888,0.00010237,0.01219866,0.01363113,-0.00448478,-0.03874198
 ,-0.10549179,0.00333309,-0.00038023,0.00079335,-0.00009812,0.00101771,
 -0.00069972,0.00031839,0.00006320,-0.00018661,0.00047420,0.04217210,0.
 80495430,-0.00038549,-0.00007441,-0.00013292,-0.00122072,-0.00158361,-
 0.00144778,-0.01625965,-0.00740253,-0.00196913,-0.00348627,-0.00113337
 ,-0.00099004,-0.00056366,-0.00004422,-0.00024189,-0.00871141,-0.006289
 22,-0.00079226,-0.00924025,0.00427484,-0.07133336,-0.00014429,-0.00015
 355,0.00092902,-0.00029371,0.00012001,0.00009475,-0.00006821,-0.000306
 49,0.00059472,0.06719686,-0.16279078,0.21083355,0.00013704,-0.00001376
 ,0.00011719,-0.00013266,-0.00036620,0.00026287,0.00107806,0.00288919,0
 .00118489,0.00100846,0.00022403,0.00184812,-0.00002940,-0.00002590,-0.
 00007999,0.00392875,0.00877417,-0.02378598,-0.06455884,-0.01825482,0.0
 6239032,0.00090801,0.00023741,-0.00005556,0.00120031,-0.00050441,0.000
 34138,-0.00311836,0.00198867,-0.00245775,-0.01144630,-0.01237204,0.028
 49871,0.07325266,0.00014986,-0.00008638,0.00012142,0.00030784,-0.00078
 362,0.00069931,0.00880218,0.00085695,-0.02863256,-0.00098021,0.0015281
 1,-0.00143595,-0.00024607,0.00010929,-0.00022655,-0.00360425,-0.008839
 63,0.02190861,-0.01429263,-0.05283898,0.05464011,-0.00127055,0.0002599
 1,-0.00092209,-0.00094348,0.00040993,-0.00033013,0.00316999,-0.0018898
 7,0.00218854,-0.00755306,-0.00610024,0.01327756,0.01764765,0.06809996,
 0.00000233,0.00002677,0.00002341,0.00021265,-0.00095683,-0.00045020,0.
 00565762,-0.00394057,-0.01900202,-0.00038637,-0.00064454,0.00169976,-0
 .00016793,-0.00002862,-0.00027375,0.00260511,0.00582843,-0.01268281,0.
 05869708,0.05882749,-0.25281469,-0.00199508,0.00077745,0.00078856,-0.0
 0020329,-0.00023467,0.00125287,-0.00182225,0.00101503,0.00042535,0.002
 26844,0.00189245,0.00224196,-0.06554757,-0.06042803,0.27836653,-0.0006
 0088,-0.00008264,-0.00029308,0.00261335,0.00386292,-0.00104427,-0.0213
 4787,-0.00110572,-0.01148807,-0.00117537,0.00147155,0.00013361,0.00043
 176,-0.00030827,0.00024481,-0.00075337,-0.00078311,-0.00021888,-0.0003
 3629,-0.00266915,0.00143517,-0.27072123,-0.02527847,-0.10689371,0.0000
 8569,0.00006810,0.00002381,0.00007326,0.00005045,-0.00004519,-0.000104
 54,-0.00026000,-0.00043515,-0.00017703,0.00063320,0.00040446,0.2895205
 6,-0.00087315,-0.00004246,0.00008839,0.00260810,0.00069853,-0.00623088
 ,0.02235655,0.00632423,0.00902594,0.00133977,-0.00082917,0.00024064,0.
 00097823,-0.00016277,0.00040126,-0.00014091,0.00026108,-0.00014988,-0.
 00129436,-0.00160363,0.00327971,-0.02784560,-0.05549355,-0.02144498,0.
 00005481,-0.00003270,-0.00001016,-0.00007982,-0.00005887,0.00003852,0.
 00131270,-0.00093304,-0.00003366,-0.00002563,0.00057938,0.00040365,0.0
 2566417,0.05609741,0.00155977,-0.00003581,0.00030614,-0.00231119,-0.00
 512186,0.00799725,0.00393239,-0.00063788,0.00725897,-0.00001322,-0.000
 50762,-0.00025694,-0.00124250,0.00039038,-0.00077199,0.00059608,0.0005
 5084,0.00058205,0.00141039,0.00314095,-0.00510258,-0.10851050,-0.02040
 212,-0.09375162,-0.00017819,0.00004474,-0.00005537,0.00002246,0.000036
 32,-0.00000819,0.00021557,-0.00027441,0.00000346,0.00017060,-0.0011435
 0,-0.00071989,0.11960587,0.02985692,0.08977871,0.00020778,0.00025672,-
 0.00068442,0.00109388,0.00075162,0.00373607,0.00717161,0.02148689,0.01
 305805,-0.00039027,-0.00136151,-0.00088350,-0.00055472,-0.00066213,0.0
 0020314,0.00113187,0.00131340,0.00125226,-0.00182711,0.00338658,-0.003
 55653,-0.09029110,-0.01519869,-0.01686395,-0.00051913,0.00019572,-0.00
 017655,-0.00003842,-0.00000598,-0.00004617,-0.00119378,0.00009330,-0.0
 0034389,0.00003171,-0.00037660,-0.00004308,-0.00084297,-0.02370349,-0.
 01535267,0.56792458,0.00066108,0.00049131,0.00057848,-0.00367207,-0.00
 125699,0.00245384,0.00371814,-0.02302007,-0.01560906,-0.00068131,0.000
 03272,-0.00024728,-0.00000914,0.00032156,0.00004812,0.00025827,0.00048
 151,-0.00003121,0.00266919,0.00520338,-0.00397429,-0.01157739,-0.16779
 238,-0.06463591,-0.00010826,-0.00002992,0.00004528,0.00001930,0.000003
 65,0.00010105,0.00035766,0.00050360,0.00038320,0.00014001,-0.00171830,
 -0.00126647,0.00009129,-0.00164492,-0.00241636,-0.00701411,0.49045623,
 -0.00046165,0.00005203,-0.00055718,0.00166262,0.00375500,-0.00444298,0
 .00243433,-0.00877593,0.00109664,-0.00063002,0.00003899,-0.00011893,0.
 00045877,-0.00004327,0.00078780,-0.00035643,-0.00130896,-0.00102125,-0
 .00260796,-0.00455816,0.00989979,-0.01578296,-0.06646985,-0.11713634,0
 .00028094,-0.00014665,0.00004567,-0.00007235,0.00000011,-0.00005940,-0
 .00022170,-0.00055015,-0.00053735,-0.00010586,0.00224375,0.00103369,-0
 .00122943,-0.01226869,-0.00543567,0.01315747,-0.02135114,0.51759317,-0
 .00030984,0.00000212,-0.00013486,0.00040070,-0.00100003,-0.00064392,-0
 .00420323,0.00184697,0.00210794,0.00017813,0.00066050,-0.00018665,-0.0
 0013156,-0.00000274,-0.00002575,0.00064285,-0.00265944,0.00089959,-0.0
 0599689,-0.03307605,0.00464834,-0.00019820,0.00019508,-0.00052764,-0.0
 0013212,0.00018164,0.00012707,-0.00038921,-0.00012028,-0.00052509,-0.1
 3327748,-0.09974151,0.00953613,-0.00294425,-0.00131357,-0.00007396,0.0
 0040816,-0.00045937,0.00011432,0.00064087,-0.00023057,0.00003950,0.631
 00366,-0.00005758,-0.00002251,-0.00008565,-0.00002955,-0.00037617,0.00
 022361,0.00000637,0.00279819,0.00109802,0.00017736,-0.00065507,0.00023
 612,-0.00008501,-0.00006845,-0.00012191,0.00112821,0.00044783,-0.00106
 145,-0.01122172,-0.01267453,0.00394797,0.00018229,-0.00022380,-0.00021
 551,-0.00009474,0.00031028,-0.00060131,-0.00089421,0.00025976,0.000604
 17,-0.09440451,-0.50634192,0.09852919,0.00010107,0.00067457,-0.0014290
 1,-0.00009201,0.00011970,0.00011507,0.00000159,-0.00003745,-0.00005391
 ,0.07219753,0.79242743,0.00003063,0.00002639,0.00004587,0.00003838,0.0
 0020694,-0.00014072,-0.00025341,-0.00186257,-0.00000603,-0.00033663,0.
 00012662,0.00011519,0.00003636,-0.00000020,0.00008079,0.00033070,-0.00
 034267,-0.00095041,0.00133647,0.00020978,0.00689434,-0.00038690,0.0000
 2785,0.00018678,-0.00006923,0.00001262,0.00050155,-0.00029714,-0.00064
 067,0.00022272,0.00732421,0.09662055,-0.07484074,-0.00099268,-0.000630
 85,0.00044780,0.00006532,-0.00007662,-0.00015842,0.00008869,0.00007281
 ,0.00000196,0.08379213,-0.15964189,0.16305342,0.00011128,-0.00008374,-
 0.00007830,-0.00047312,0.00105355,0.00044999,0.00048715,0.00125910,0.0
 0074163,-0.00238527,-0.00071536,-0.00167151,0.00006596,-0.00013401,-0.
 00002521,-0.00061929,-0.00455336,0.00211502,-0.02033329,0.01768833,-0.
 01060740,-0.00030609,0.00011738,-0.00014647,-0.00019784,0.00026479,0.0
 0001119,0.00016620,0.00010686,-0.00021519,-0.19976024,0.12139212,-0.06
 458823,0.00068894,0.00002427,0.00053636,0.00083741,-0.00055971,0.00002
 554,0.00055125,-0.00020728,0.00005051,0.00808707,-0.00628950,0.0017526
 7,0.21075464,0.00006296,-0.00002768,-0.00000360,-0.00018723,0.00045748
 ,0.00014787,0.00103665,0.00021338,-0.00012831,-0.00096981,-0.00020379,
 -0.00067254,0.00005547,-0.00003372,0.00000651,-0.00187830,-0.00147427,
 0.00053892,-0.00978573,0.01006792,-0.00420638,-0.00072410,-0.00041864,
 -0.00025375,-0.00013966,0.00010487,0.00001925,0.00011592,-0.00001587,-
 0.00018205,0.11735060,-0.15468259,0.05574442,0.00060670,0.00051695,0.0
 0025145,-0.00034858,-0.00094797,-0.00078178,0.00006937,-0.00009964,0.0
 0006341,0.02376123,-0.01917035,0.01165402,-0.12706196,0.16865002,0.000
 03391,-0.00001201,0.00000639,0.00009925,0.00007783,0.00012392,0.000492
 89,0.00075324,0.00044214,0.00002545,0.00003921,0.00011464,0.00005742,0
 .00000364,0.00001401,-0.00066071,0.00034211,0.00153269,-0.00056550,0.0
 0067698,0.00176052,-0.00065074,0.00019764,-0.00032692,-0.00032916,0.00
 008218,-0.00027221,0.00030558,-0.00016783,0.00006584,-0.06394338,0.056
 67367,-0.06973471,-0.00079857,-0.00044559,0.00035799,0.00011657,-0.000
 80080,0.00010579,0.00031958,-0.00014796,0.00003829,-0.00607736,0.00502
 903,0.00424813,0.07136413,-0.06359769,0.05801562,0.00000667,0.00003637
 ,0.00045760,-0.00056814,0.00019498,-0.00020883,0.00023672,0.00021492,0
 .00054887,0.00052175,0.00031561,0.00045103,-0.00010102,0.00055132,-0.0
 0005125,-0.00030100,0.00000961,-0.00007112,0.00013926,-0.00019358,-0.0
 0003387,-0.00211573,-0.00098507,-0.00104647,0.00008245,0.00003069,0.00
 001671,0.00001583,-0.00000436,0.00000648,0.00004116,0.00005610,-0.0000
 0579,-0.00001954,-0.00004559,-0.00003086,0.00153687,-0.00006351,-0.000
 31019,-0.25819852,-0.01021903,-0.10335372,-0.00000686,-0.00002088,-0.0
 0000032,0.00004590,0.00001801,0.00004180,0.28092907,0.00071098,-0.0005
 6808,0.00036257,0.00094128,-0.00058266,-0.00060384,-0.00068219,0.00178
 540,0.00098120,-0.00012409,0.00048821,0.00043634,0.00038260,-0.0000591
 3,-0.00001326,-0.00035415,-0.00015705,-0.00012251,-0.00002672,-0.00002
 365,0.00006869,-0.02771916,-0.00090546,-0.01254078,0.00004364,0.000052
 98,0.00001202,0.00003480,0.00001457,-0.00001806,-0.00017724,-0.0000442
 9,-0.00008450,-0.00002369,-0.00000539,0.00001215,-0.00000937,-0.004010
 61,-0.00326266,-0.00793914,-0.04810099,-0.00499982,0.00011559,-0.00003
 270,0.00002020,0.00017170,0.00003153,0.00009352,0.00995685,0.05123038,
 -0.00005305,0.00010913,0.00028885,0.00019226,-0.00044381,0.00000875,-0
 .00042589,0.00097767,0.00076123,0.00035363,0.00052567,0.00021944,0.000
 80139,-0.00017305,-0.00026510,-0.00042327,-0.00006166,-0.00006822,0.00
 012978,0.00002814,-0.00010436,-0.01699983,0.00011924,-0.00858268,0.000
 06052,0.00005955,0.00000926,0.00004160,0.00003347,-0.00001687,-0.00007
 396,0.00004272,-0.00004500,-0.00002841,-0.00011223,-0.00005297,0.00009
 599,-0.00319675,-0.00065100,-0.10184782,-0.00613961,-0.09816695,0.0000
 7837,-0.00002204,0.00000918,0.00011157,0.00002058,0.00007615,0.1147667
 8,0.00886234,0.10310464,0.00039751,-0.00042814,0.00013295,0.00000012,-
 0.00001076,0.00003984,0.00024411,-0.00010131,-0.00007505,-0.00001923,0
 .00018029,0.00020554,-0.00003439,0.00030922,-0.00003742,-0.00016139,0.
 00001943,-0.00002930,0.00000349,0.00007997,-0.00006679,0.00018060,-0.0
 0078723,0.00309925,0.00003952,0.00001180,-0.00001582,0.00000235,-0.000
 00241,0.00000271,0.00014957,-0.00007562,0.00006064,-0.00001817,-0.0000
 9745,-0.00006989,0.00015569,0.00018062,0.00001624,-0.04865596,0.020699
 41,-0.01893359,-0.00007452,-0.00000651,-0.00001645,-0.00002145,-0.0000
 0244,-0.00001598,-0.00283703,0.02420815,-0.01719466,0.04851986,0.00021
 144,0.00001583,0.00021545,-0.00044601,-0.00037109,0.00076409,-0.003457
 33,-0.00083881,-0.00132287,0.00013231,0.00003081,0.00008398,0.00005486
 ,-0.00009430,-0.00001837,-0.00011566,0.00016604,-0.00001287,0.00092235
 ,0.00078242,-0.00205909,0.00574374,-0.02607632,0.01170634,0.00002250,-
 0.00004111,0.00001379,0.00001179,-0.00001134,0.00004157,0.00035866,0.0
 0015521,0.00014908,0.00002479,-0.00070694,-0.00026194,-0.00021072,0.00
 082637,-0.00055017,0.02199852,-0.21170902,0.12276825,-0.00012779,-0.00
 005333,-0.00000396,-0.00003954,-0.00000715,0.00000253,0.00044619,0.002
 08697,-0.00146240,-0.02477786,0.23485077,0.00031510,-0.00008085,0.0001
 8345,-0.00054160,-0.00042605,0.00037184,-0.00061297,-0.00179638,-0.001
 03148,0.00006148,0.00014212,0.00013972,0.00008252,0.00021902,-0.000072
 71,-0.00011108,0.00017298,0.00001165,0.00066962,0.00073221,-0.00151935
 ,0.00346041,-0.01798539,0.01302305,0.00000751,-0.00000174,0.00000732,0
 .00000678,-0.00000189,0.00001935,0.00019357,0.00009629,0.00009396,0.00
 002294,-0.00049256,-0.00032386,-0.00005641,0.00101648,0.00032663,-0.01
 874429,0.12006734,-0.13044030,-0.00007850,-0.00002147,0.00001014,-0.00
 003841,-0.00001492,-0.00001255,-0.00081693,0.00996714,-0.00840055,0.01
 857423,-0.13024929,0.14224470,-0.00014099,0.00016378,0.00037655,-0.000
 24365,0.00001972,-0.00024334,0.00098622,-0.00118071,0.00038104,0.00011
 132,0.00019345,0.00011065,0.00043120,-0.00023365,-0.00015674,-0.000175
 01,-0.00004697,0.00002736,0.00001339,0.00000591,0.00002772,0.00390663,
 0.00318008,-0.00317760,0.00003916,0.00004280,-0.00001344,0.00001540,0.
 00003749,-0.00001553,0.00006621,0.00000625,0.00006250,-0.00000264,-0.0
 0008994,-0.00006341,0.00043762,0.00057825,0.00020763,-0.17624725,0.005
 08891,0.12571671,-0.00002217,0.00001253,-0.00000538,-0.00003379,-0.000
 00642,-0.00002389,-0.01941695,0.00049557,0.02042219,0.00213234,-0.0007
 4776,-0.00239696,0.18814842,0.00001740,-0.00005263,0.00004558,0.000035
 02,0.00038406,-0.00093304,-0.00232785,-0.00160112,-0.00234416,0.000124
 53,0.00016696,0.00014374,0.00021748,0.00003746,0.00008314,-0.00034341,
 -0.00039342,-0.00047931,0.00011199,-0.00167192,0.00169148,0.02288526,-
 0.00513318,-0.02179239,0.00016832,-0.00009452,0.00005853,0.00000369,-0
 .00003477,0.00004065,0.00032301,-0.00005539,-0.00004771,-0.00005138,0.
 00031151,0.00019695,-0.00052018,0.00080140,0.00092740,0.00675671,-0.04
 209903,-0.00840831,-0.00015366,-0.00007680,0.00003092,-0.00004544,0.00
 001508,-0.00004081,-0.00027121,-0.00115862,0.00087132,-0.01938946,0.00
 101742,0.01867085,-0.00752530,0.04966231,-0.00002784,0.00006509,0.0001
 4154,-0.00014080,0.00042254,-0.00058841,-0.00208654,-0.00080255,-0.001
 18126,0.00017119,0.00007451,0.00012553,0.00036080,-0.00006817,-0.00009
 992,-0.00032234,-0.00018382,-0.00029637,0.00020526,-0.00067799,0.00083
 754,0.01261080,-0.00305141,-0.01150580,0.00012724,-0.00004785,0.000028
 41,-0.00000456,-0.00001119,0.00003691,0.00034957,-0.00003464,-0.000002
 01,-0.00003682,0.00003253,0.00000603,-0.00045379,-0.00005973,0.0005243
 5,0.12672313,-0.00788972,-0.17262260,-0.00013923,-0.00005303,-0.000008
 64,-0.00003771,0.00001821,-0.00002702,-0.01036868,0.00081488,0.0118623
 2,0.01432310,0.00018829,-0.01462575,-0.14123293,0.01128862,0.18739228,
 0.00001058,0.00001381,0.00003713,0.00002914,-0.00007354,0.00002975,0.0
 0021522,0.00003938,-0.00013262,0.00025732,-0.00012729,0.00025569,0.000
 01306,-0.00001285,-0.00000424,-0.00095607,-0.00061104,-0.00043571,0.00
 026764,0.00040294,0.00147426,0.00002016,-0.00004647,0.00003297,-0.0002
 3082,-0.00000538,-0.00011553,-0.00083801,-0.00059325,0.00004582,0.0085
 7093,-0.00500478,0.00157668,-0.00008383,0.00002230,-0.00009428,-0.0000
 4005,0.00001703,0.00000066,-0.00004886,0.00001046,-0.00000878,-0.18691
 987,0.12529033,-0.06010048,0.00135476,-0.00231730,-0.00153842,0.000013
 13,-0.00000945,-0.00000695,0.00000426,0.00000960,0.00000664,-0.0000050
 4,0.00001408,0.00001029,0.19232863,-0.00008049,0.00003097,0.00002081,0
 .00024384,-0.00048333,-0.00012278,-0.00024340,0.00000768,-0.00006290,0
 .00018122,0.00097140,-0.00024677,-0.00007248,0.00009077,0.00000450,-0.
 00083157,-0.00108041,0.00087860,0.00184222,0.00119882,-0.00181887,0.00
 015329,-0.00005458,-0.00000953,-0.00022851,0.00011765,0.00010129,-0.00
 032335,0.00023659,-0.00098404,0.02373908,-0.01754169,0.01060842,0.0001
 5470,0.00024383,-0.00002541,-0.00014584,0.00008299,0.00003189,-0.00010
 128,0.00005387,-0.00001657,0.12099207,-0.17550026,0.05828076,-0.002693
 84,-0.00360127,0.00341688,-0.00002182,-0.00004134,-0.00003248,0.000006
 70,0.00000991,0.00000496,0.00000859,0.00000156,0.00000795,-0.13560251,
 0.18718114,-0.00000906,-0.00002960,-0.00001875,-0.00021065,-0.00028634
 ,-0.00007882,-0.00091082,-0.00013729,0.00033630,0.00042245,-0.00014173
 ,-0.00007850,-0.00007068,-0.00002946,-0.00008698,-0.00026033,-0.000127
 16,0.00039947,0.00054360,-0.00268080,-0.00722661,-0.00009307,0.0000265
 4,-0.00011430,0.00042180,0.00001923,-0.00019236,-0.00071423,-0.0003023
 6,-0.00017809,-0.00497756,0.00556752,0.00348218,0.00099484,0.00085781,
 0.00002077,0.00011119,-0.00013153,0.00004583,0.00012504,-0.00000402,-0
 .00003578,-0.05894613,0.05874362,-0.06080148,-0.00160916,0.00375370,0.
 01074802,0.00000156,0.00002748,0.00002770,-0.00000898,0.00000393,-0.00
 000237,-0.00000251,-0.00003112,-0.00001988,0.06660328,-0.06723008,0.05
 252592,-0.00000462,-0.00001705,-0.00003153,-0.00003887,-0.00005846,0.0
 0001200,-0.00060798,-0.00018976,0.00019288,-0.00009775,-0.00029437,0.0
 0004564,-0.00004093,-0.00004480,-0.00004035,0.00036872,0.00026397,-0.0
 0019078,0.00226018,-0.00077814,-0.00222866,-0.00003267,0.00001573,-0.0
 0003935,0.00008390,0.00000397,-0.00006139,0.00000259,-0.00006006,0.000
 27137,-0.00393505,-0.00066919,-0.00118480,0.00029707,0.00005611,0.0001
 1394,-0.00000076,-0.00004469,0.00004093,0.00005454,0.00000543,-0.00003
 638,-0.30675524,-0.08590105,-0.03233696,0.00097983,0.00034461,0.001747
 13,-0.00000402,0.00000403,-0.00000025,-0.00000728,-0.00001406,-0.00000
 365,-0.00000042,-0.00002959,-0.00003013,-0.01396227,-0.00697660,-0.001
 41055,0.32144103,-0.00005439,0.00001744,-0.00001921,0.00016422,-0.0001
 1164,-0.00006488,-0.00031569,0.00034146,0.00032637,-0.00014613,0.00037
 784,-0.00030461,-0.00001881,0.00002651,0.00002746,0.00045644,-0.000609
 17,0.00066423,0.00057762,-0.00261578,0.00381038,0.00003890,0.00000332,
 -0.00011784,-0.00016388,0.00004504,0.00011515,0.00005320,0.00018660,-0
 .00045291,-0.03164700,-0.00863752,-0.00314268,-0.00115056,-0.00062104,
 -0.00001573,-0.00002761,-0.00003141,0.00003964,0.00005250,-0.00003913,
 0.00002988,-0.08106772,-0.08180443,-0.00409002,0.00030561,0.00062570,-
 0.00217576,-0.00000561,-0.00000007,-0.00000580,-0.00001640,-0.00003232
 ,-0.00001886,-0.00000259,-0.00002636,-0.00003248,0.01858395,0.00807572
 ,0.00213164,0.09438396,0.08482924,0.00009161,-0.00000583,0.00000449,-0
 .00007231,0.00076938,0.00033062,0.00214997,0.00063377,-0.00014161,-0.0
 0019613,-0.00032739,-0.00011588,0.00015035,-0.00002781,0.00006438,0.00
 002411,0.00008691,-0.00006887,-0.00245237,0.00418391,0.01147682,0.0002
 4903,-0.00006859,0.00001403,0.00001616,-0.00001926,-0.00001849,0.00009
 164,-0.00004322,0.00021106,0.00666463,0.00306195,0.00379358,-0.0019426
 7,-0.00116958,-0.00034451,-0.00007882,0.00005218,-0.00001753,-0.000120
 55,-0.00003709,0.00007772,-0.03398430,-0.00521962,-0.03891143,0.001858
 96,-0.00237733,-0.00727673,0.00000720,-0.00001311,-0.00001382,0.000009
 40,0.00000367,-0.00000290,-0.00000062,0.00002767,0.00002273,-0.0076361
 6,-0.00280665,0.00124774,0.03517089,0.00329603,0.02966858\\-0.00099258
 ,0.00067379,-0.00000285,0.00098611,-0.00090592,0.00001935,0.00000515,0
 .00024988,-0.00002133,0.00000583,-0.00000786,-0.00000862,0.00000200,-0
 .00000352,-0.00000417,-0.00001024,0.00000329,-0.00000536,-0.00000538,-
 0.00000524,0.00001434,0.00000276,0.00000511,-0.00000346,0.00000187,-0.
 00000377,0.00000342,0.00000061,-0.00000097,0.00000156,0.00000061,0.000
 00055,0.00000614,0.00000365,0.00000076,-0.00000160,0.00000006,-0.00000
 034,0.00000119,-0.00000298,-0.00000962,0.00001252,-0.00000081,-0.00000
 090,0.00000253,0.00000068,-0.00000017,-0.00000137,0.00000439,0.0000062
 7,-0.00000987,-0.00000287,0.00000171,0.00000287,-0.00000067,-0.0000026
 5,0.00000025,0.00000095,-0.00000022,-0.00000167,0.00000086,-0.00000019
 ,-0.00000388\\\@


 ALL THINGS ARE POSSIBLE EXCEPT SKIING THROUGH A REVOLVING DOOR.
 Job cpu time:       0 days  2 hours 27 minutes 57.5 seconds.
 Elapsed time:       0 days  0 hours 12 minutes 22.6 seconds.
 File lengths (MBytes):  RWF=    204 Int=      0 D2E=      0 Chk=     32 Scr=      1
 Normal termination of Gaussian 16 at Sat Jun 11 00:00:55 2022.
