 Entering Gaussian System, Link 0=g16
 Input=ts_zmat_field_N75.gjf
 Output=ts_zmat_field_N75.out
 Initial command:
 /software/gaussian/g16-a03/l1.exe "/local_scratch/11174804/Gau-12455.inp" -scrdir="/local_scratch/11174804/"
 Entering Link 1 = /software/gaussian/g16-a03/l1.exe PID=     12456.
  
 Copyright (c) 1988,1990,1992,1993,1995,1998,2003,2009,2016,
            Gaussian, Inc.  All Rights Reserved.
  
 This is part of the Gaussian(R) 16 program.  It is based on
 the Gaussian(R) 09 system (copyright 2009, Gaussian, Inc.),
 the Gaussian(R) 03 system (copyright 2003, Gaussian, Inc.),
 the Gaussian(R) 98 system (copyright 1998, Gaussian, Inc.),
 the Gaussian(R) 94 system (copyright 1995, Gaussian, Inc.),
 the Gaussian 92(TM) system (copyright 1992, Gaussian, Inc.),
 the Gaussian 90(TM) system (copyright 1990, Gaussian, Inc.),
 the Gaussian 88(TM) system (copyright 1988, Gaussian, Inc.),
 the Gaussian 86(TM) system (copyright 1986, Carnegie Mellon
 University), and the Gaussian 82(TM) system (copyright 1983,
 Carnegie Mellon University). Gaussian is a federally registered
 trademark of Gaussian, Inc.
  
 This software contains proprietary and confidential information,
 including trade secrets, belonging to Gaussian, Inc.
  
 This software is provided under written license and may be
 used, copied, transmitted, or stored only in accord with that
 written license.
  
 The following legend is applicable only to US Government
 contracts under FAR:
  
                    RESTRICTED RIGHTS LEGEND
  
 Use, reproduction and disclosure by the US Government is
 subject to restrictions as set forth in subparagraphs (a)
 and (c) of the Commercial Computer Software - Restricted
 Rights clause in FAR 52.227-19.
  
 Gaussian, Inc.
 340 Quinnipiac St., Bldg. 40, Wallingford CT 06492
  
  
 ---------------------------------------------------------------
 Warning -- This program may not be used in any manner that
 competes with the business of Gaussian, Inc. or will provide
 assistance to any competitor of Gaussian, Inc.  The licensee
 of this program is prohibited from giving any competitor of
 Gaussian, Inc. access to this program.  By using this program,
 the user acknowledges that Gaussian, Inc. is engaged in the
 business of creating and licensing software in the field of
 computational chemistry and represents and warrants to the
 licensee that it is not a competitor of Gaussian, Inc. and that
 it will not use this program in any manner prohibited above.
 ---------------------------------------------------------------
  

 Cite this work as:
 Gaussian 16, Revision A.03,
 M. J. Frisch, G. W. Trucks, H. B. Schlegel, G. E. Scuseria, 
 M. A. Robb, J. R. Cheeseman, G. Scalmani, V. Barone, 
 G. A. Petersson, H. Nakatsuji, X. Li, M. Caricato, A. V. Marenich, 
 J. Bloino, B. G. Janesko, R. Gomperts, B. Mennucci, H. P. Hratchian, 
 J. V. Ortiz, A. F. Izmaylov, J. L. Sonnenberg, D. Williams-Young, 
 F. Ding, F. Lipparini, F. Egidi, J. Goings, B. Peng, A. Petrone, 
 T. Henderson, D. Ranasinghe, V. G. Zakrzewski, J. Gao, N. Rega, 
 G. Zheng, W. Liang, M. Hada, M. Ehara, K. Toyota, R. Fukuda, 
 J. Hasegawa, M. Ishida, T. Nakajima, Y. Honda, O. Kitao, H. Nakai, 
 T. Vreven, K. Throssell, J. A. Montgomery, Jr., J. E. Peralta, 
 F. Ogliaro, M. J. Bearpark, J. J. Heyd, E. N. Brothers, K. N. Kudin, 
 V. N. Staroverov, T. A. Keith, R. Kobayashi, J. Normand, 
 K. Raghavachari, A. P. Rendell, J. C. Burant, S. S. Iyengar, 
 J. Tomasi, M. Cossi, J. M. Millam, M. Klene, C. Adamo, R. Cammi, 
 J. W. Ochterski, R. L. Martin, K. Morokuma, O. Farkas, 
 J. B. Foresman, and D. J. Fox, Gaussian, Inc., Wallingford CT, 2016.
 
 ******************************************
 Gaussian 16:  ES64L-G16RevA.03 25-Dec-2016
                11-Jun-2022 
 ******************************************
 %nprocshared=12
 Will use up to   12 processors via shared memory.
 %chk=checkpoint.chk
 %mem=12GB
 ----------------------------------------------------------------------
 # Opt=(TS, CalcFC, noeigentest, Z-matrix, MaxStep=10) geom=allcheckpoi
 nt guess=read Field=read NoSymm B3LYP/Def2TZVP freq=noraman pop=none
 ----------------------------------------------------------------------
 1/5=1,8=10,10=4,11=1,18=40,26=3,29=7,38=1/1,3;
 2/12=2,15=1,29=3,40=1/2;
 3/5=44,7=101,11=2,14=-6,25=1,30=1,71=2,74=-5,116=-2,140=1/1,2,3;
 4/5=1/1;
 5/5=2,38=6/2;
 8/6=4,10=90,11=11/1;
 11/6=1,8=1,9=11,15=111,16=1,31=1/1,2,10;
 10/6=1,13=1,31=1/2;
 7/10=1,18=20,25=1,30=1/1,2,3,16;
 1/5=1,8=10,10=4,11=1,18=40,26=3/3(2);
 2/15=1,29=3/2;
 99//99;
 2/15=1,29=3/2;
 3/5=44,7=101,11=2,14=-2,25=1,30=1,71=1,74=-5/1,2,3;
 4/5=5,16=3,69=1/1;
 5/5=2,38=5/2;
 7/30=1/1,2,3,16;
 1/5=1,8=10,11=1,18=40,26=3/3(-5);
 2/15=1,29=3/2;
 99/9=1/99;
 Structure from the checkpoint file:  "checkpoint.chk"
 -----------------
 ts_zmat_initalOpt
 -----------------
 Charge =  0 Multiplicity = 1
 Z-Matrix found in chk file.
 H
 C,1,R2
 C,2,R3,1,A3
 O,2,R4,1,A4,3,D4,0
 H,2,R5,1,A5,3,D5,0
 C,4,R6,2,A6,1,D6,0
 C,3,R7,2,A7,1,D7,0
 C,6,R8,4,A8,2,D8,0
 H,6,R9,4,A9,8,D9,0
 H,6,R10,4,A10,8,D10,0
 C,7,R11,3,A11,2,D11,0
 C,8,R12,6,A12,4,D12,0
 H,8,R13,6,A13,12,D13,0
 H,11,R14,7,A14,3,D14,0
 H,11,R15,7,A15,14,D15,0
 H,11,R16,7,A16,14,D16,0
 C,12,R17,8,A17,6,D17,0
 H,12,R18,8,A18,17,D18,0
 H,17,R19,12,A19,8,D19,0
 H,17,R20,12,A20,19,D20,0
 H,17,R21,12,A21,19,D21,0
      Variables:
 R2=1.09542753
 R3=1.46457104
 R4=1.43878633
 R5=1.09650854
 R6=1.43958627
 R7=1.24969105
 R8=1.49713814
 R9=1.09366231
 R10=1.09461086
 R11=1.48281231
 R12=1.38058619
 R13=1.08869376
 R14=1.09230717
 R15=1.09224524
 R16=1.09244132
 R17=1.40672294
 R18=1.08559611
 R19=1.08624563
 R20=1.34232074
 R21=1.0845615
 A3=110.95479642
 A4=106.58691217
 A5=107.96076418
 A6=112.2386528
 A7=153.6999021
 A8=109.64588979
 A9=104.67453624
 A10=110.71882273
 A11=147.11954401
 A12=129.49622559
 A13=111.46722555
 A14=111.83148769
 A15=110.7122118
 A16=110.69755596
 A17=124.14170261
 A18=115.73605772
 A19=119.68364531
 A20=93.93154631
 A21=117.8838184
 D4=120.58779934
 D5=-122.27930369
 D6=-136.16279815
 D7=2.78799634
 D8=-34.41981239
 D9=-119.31099842
 D10=124.20416887
 D11=-24.11939042
 D12=146.00956124
 D13=156.00129334
 D14=3.81174329
 D15=-120.78671854
 D16=121.1597046
 D17=-41.5197158
 D18=-156.19555584
 D19=40.33698825
 D20=-100.7003322
 D21=144.81820948
 Recover connectivity data from disk.

 GradGradGradGradGradGradGradGradGradGradGradGradGradGradGradGradGradGrad
 Berny optimization.
 Initialization pass.
                       ----------------------------
                       !    Initial Parameters    !
                       ! (Angstroms and Degrees)  !
 ----------------------                            ----------------------
 !      Name          Value   Derivative information (Atomic Units)     !
 ------------------------------------------------------------------------
 !       R2          1.0954   calculate D2E/DX2 analytically            !
 !       R3          1.4646   calculate D2E/DX2 analytically            !
 !       R4          1.4388   calculate D2E/DX2 analytically            !
 !       R5          1.0965   calculate D2E/DX2 analytically            !
 !       R6          1.4396   calculate D2E/DX2 analytically            !
 !       R7          1.2497   calculate D2E/DX2 analytically            !
 !       R8          1.4971   calculate D2E/DX2 analytically            !
 !       R9          1.0937   calculate D2E/DX2 analytically            !
 !       R10         1.0946   calculate D2E/DX2 analytically            !
 !       R11         1.4828   calculate D2E/DX2 analytically            !
 !       R12         1.3806   calculate D2E/DX2 analytically            !
 !       R13         1.0887   calculate D2E/DX2 analytically            !
 !       R14         1.0923   calculate D2E/DX2 analytically            !
 !       R15         1.0922   calculate D2E/DX2 analytically            !
 !       R16         1.0924   calculate D2E/DX2 analytically            !
 !       R17         1.4067   calculate D2E/DX2 analytically            !
 !       R18         1.0856   calculate D2E/DX2 analytically            !
 !       R19         1.0862   calculate D2E/DX2 analytically            !
 !       R20         1.3423   calculate D2E/DX2 analytically            !
 !       R21         1.0846   calculate D2E/DX2 analytically            !
 !       A3        110.9548   calculate D2E/DX2 analytically            !
 !       A4        106.5869   calculate D2E/DX2 analytically            !
 !       A5        107.9608   calculate D2E/DX2 analytically            !
 !       A6        112.2387   calculate D2E/DX2 analytically            !
 !       A7        153.6999   calculate D2E/DX2 analytically            !
 !       A8        109.6459   calculate D2E/DX2 analytically            !
 !       A9        104.6745   calculate D2E/DX2 analytically            !
 !       A10       110.7188   calculate D2E/DX2 analytically            !
 !       A11       147.1195   calculate D2E/DX2 analytically            !
 !       A12       129.4962   calculate D2E/DX2 analytically            !
 !       A13       111.4672   calculate D2E/DX2 analytically            !
 !       A14       111.8315   calculate D2E/DX2 analytically            !
 !       A15       110.7122   calculate D2E/DX2 analytically            !
 !       A16       110.6976   calculate D2E/DX2 analytically            !
 !       A17       124.1417   calculate D2E/DX2 analytically            !
 !       A18       115.7361   calculate D2E/DX2 analytically            !
 !       A19       119.6836   calculate D2E/DX2 analytically            !
 !       A20        93.9315   calculate D2E/DX2 analytically            !
 !       A21       117.8838   calculate D2E/DX2 analytically            !
 !       D4        120.5878   calculate D2E/DX2 analytically            !
 !       D5       -122.2793   calculate D2E/DX2 analytically            !
 !       D6       -136.1628   calculate D2E/DX2 analytically            !
 !       D7          2.788    calculate D2E/DX2 analytically            !
 !       D8        -34.4198   calculate D2E/DX2 analytically            !
 !       D9       -119.311    calculate D2E/DX2 analytically            !
 !       D10       124.2042   calculate D2E/DX2 analytically            !
 !       D11       -24.1194   calculate D2E/DX2 analytically            !
 !       D12       146.0096   calculate D2E/DX2 analytically            !
 !       D13       156.0013   calculate D2E/DX2 analytically            !
 !       D14         3.8117   calculate D2E/DX2 analytically            !
 !       D15      -120.7867   calculate D2E/DX2 analytically            !
 !       D16       121.1597   calculate D2E/DX2 analytically            !
 !       D17       -41.5197   calculate D2E/DX2 analytically            !
 !       D18      -156.1956   calculate D2E/DX2 analytically            !
 !       D19        40.337    calculate D2E/DX2 analytically            !
 !       D20      -100.7003   calculate D2E/DX2 analytically            !
 !       D21       144.8182   calculate D2E/DX2 analytically            !
 ------------------------------------------------------------------------
 Trust Radius=1.00D-01 FncErr=1.00D-07 GrdErr=1.00D-06 EigMax=2.50D+02 EigMin=1.00D-04
 Number of steps in this run=     67 maximum allowed number of steps=    114.
 Search for a saddle point of order  1.
 GradGradGradGradGradGradGradGradGradGradGradGradGradGradGradGradGradGrad

 ---------------------------------------------------------------------------------------------------
                            Z-MATRIX (ANGSTROMS AND DEGREES)
   CD    Cent   Atom    N1       Length/X        N2       Alpha/Y        N3        Beta/Z          J
 ---------------------------------------------------------------------------------------------------
      1      1  H 
      2      2  C        1   1.095428(     1)
      3      3  C        2   1.464571(     2)      1  110.955(    21)
      4      4  O        2   1.438786(     3)      1  106.587(    22)      3  120.588(    40)      0
      5      5  H        2   1.096509(     4)      1  107.961(    23)      3 -122.279(    41)      0
      6      6  C        4   1.439586(     5)      2  112.239(    24)      1 -136.163(    42)      0
      7      7  C        3   1.249691(     6)      2  153.700(    25)      1    2.788(    43)      0
      8      8  C        6   1.497138(     7)      4  109.646(    26)      2  -34.420(    44)      0
      9      9  H        6   1.093662(     8)      4  104.675(    27)      8 -119.311(    45)      0
     10     10  H        6   1.094611(     9)      4  110.719(    28)      8  124.204(    46)      0
     11     11  C        7   1.482812(    10)      3  147.120(    29)      2  -24.119(    47)      0
     12     12  C        8   1.380586(    11)      6  129.496(    30)      4  146.010(    48)      0
     13     13  H        8   1.088694(    12)      6  111.467(    31)     12  156.001(    49)      0
     14     14  H       11   1.092307(    13)      7  111.831(    32)      3    3.812(    50)      0
     15     15  H       11   1.092245(    14)      7  110.712(    33)     14 -120.787(    51)      0
     16     16  H       11   1.092441(    15)      7  110.698(    34)     14  121.160(    52)      0
     17     17  C       12   1.406723(    16)      8  124.142(    35)      6  -41.520(    53)      0
     18     18  H       12   1.085596(    17)      8  115.736(    36)     17 -156.196(    54)      0
     19     19  H       17   1.086246(    18)     12  119.684(    37)      8   40.337(    55)      0
     20     20  H       17   1.342321(    19)     12   93.932(    38)     19 -100.700(    56)      0
     21     21  H       17   1.084562(    20)     12  117.884(    39)     19  144.818(    57)      0
 ---------------------------------------------------------------------------------------------------
                         Z-Matrix orientation:                         
 ---------------------------------------------------------------------
 Center     Atomic      Atomic             Coordinates (Angstroms)
 Number     Number       Type             X           Y           Z
 ---------------------------------------------------------------------
      1          1           0        0.000000    0.000000    0.000000
      2          6           0        0.000000    0.000000    1.095428
      3          6           0        1.367709    0.000000    1.619204
      4          8           0       -0.701672    1.187040    1.506157
      5          1           0       -0.557050   -0.881871    1.433553
      6          6           0       -0.033274    1.869973    2.582844
      7          6           0        2.611731    0.026932    1.503397
      8          6           0        0.619359    0.869454    3.485316
      9          1           0       -0.828250    2.411437    3.103350
     10          1           0        0.682010    2.601042    2.192869
     11          6           0        3.788354   -0.242758    0.642260
     12          6           0        1.797083    0.967499    4.199019
     13          1           0       -0.104957    0.162436    3.886247
     14          1           0        3.493776   -0.578800   -0.354452
     15          1           0        4.425047   -1.010488    1.087471
     16          1           0        4.404476    0.653387    0.538603
     17          6           0        2.979401    1.540623    3.696503
     18          1           0        1.920738    0.251101    5.005247
     19          1           0        2.925901    2.442371    3.093247
     20          1           0        3.083513    0.664642    2.684750
     21          1           0        3.870193    1.488488    4.312981
 ---------------------------------------------------------------------
                    Distance matrix (angstroms):
                    1          2          3          4          5
     1  H    0.000000
     2  C    1.095428   0.000000
     3  C    2.119540   1.464571   0.000000
     4  O    2.042037   1.438786   2.388342   0.000000
     5  H    1.772872   1.096509   2.125290   2.075230   0.000000
     6  C    3.188885   2.389626   2.527479   1.439586   3.027847
     7  C    3.013647   2.643540   1.249691   3.510626   3.297268
     8  C    3.645131   2.617465   2.190514   2.400636   2.942925
     9  H    4.016442   3.245424   3.583288   2.016481   3.702385
    10  H    3.469760   2.904296   2.750399   2.094171   3.773926
    11  C    3.850072   3.823077   2.621617   4.790717   4.462863
    12  C    4.668760   3.714544   2.788523   3.680147   4.075526
    13  H    3.891056   2.797513   2.708249   2.659081   2.703826
    14  H    3.559089   3.826699   2.958122   4.917503   4.438243
    15  H    4.667410   4.538963   3.263609   5.593538   4.995759
    16  H    4.485133   4.487357   3.288855   5.224336   5.270170
    17  C    4.991441   4.244519   3.047334   4.298015   4.847258
    18  H    5.367009   4.363367   3.440084   4.471761   4.492222
    19  H    4.908590   4.303180   3.250530   4.153793   5.092752
    20  H    4.142183   3.532102   2.126293   3.998700   4.148602
    21  H    5.982959   5.248489   3.966668   5.373182   5.788799
                    6          7          8          9         10
     6  C    0.000000
     7  C    3.399713   0.000000
     8  C    1.497138   2.933835   0.000000
     9  H    1.093662   4.480979   2.149228   0.000000
    10  H    1.094611   3.290172   2.161652   1.773643   0.000000
    11  C    4.778528   1.482812   4.400285   5.866408   4.487868
    12  C    2.603207   2.968954   1.380586   3.190270   2.817178
    13  H    2.149344   3.616175   1.088694   2.488792   3.071424
    14  H    5.202333   2.143949   5.010342   6.291090   4.950380
    15  H    5.514509   2.130106   4.875151   6.585625   5.317460
    16  H    5.035138   2.130072   4.801761   6.086878   4.515164
    17  C    3.228764   2.690010   2.462695   3.950740   2.943367
    18  H    3.508125   3.576405   2.094311   3.980100   3.868609
    19  H    3.056937   2.908723   2.819205   3.754291   2.422995
    20  H    3.343286   1.422971   2.599020   4.304463   3.123909
    21  H    4.286719   3.407878   3.411180   4.938664   3.987125
                   11         12         13         14         15
    11  C    0.000000
    12  C    4.252107   0.000000
    13  H    5.083847   2.088949   0.000000
    14  H    1.092307   5.099402   5.611046   0.000000
    15  H    1.092245   4.527731   5.452507   1.769961   0.000000
    16  H    1.092441   4.505086   5.637618   1.773473   1.752187
    17  C    3.628120   1.406723   3.383587   4.600736   3.924933
    18  H    4.771534   1.085596   2.315915   5.647083   4.817897
    19  H    3.736454   2.161529   3.874668   4.619155   4.265303
    20  H    2.343489   2.009884   3.444146   3.309262   2.675271
    21  H    4.059323   2.140608   4.212164   5.118623   4.117846
                   16         17         18         19         20
    16  H    0.000000
    17  C    3.576361   0.000000
    18  H    5.126567   2.120482   0.000000
    19  H    3.451500   1.086246   3.076972   0.000000
    20  H    2.520123   1.342321   2.628262   1.830856   0.000000
    21  H    3.902407   1.084562   2.410546   1.813652   1.987139
                   21
    21  H    0.000000
 Symmetry turned off by external request.
 Stoichiometry    C8H12O
 Framework group  C1[X(C8H12O)]
 Deg. of freedom    57
 Full point group                 C1      NOp   1
 Rotational constants (GHZ):           1.9886609           1.4949537           0.9614548
 Standard basis: def2TZVP (5D, 7F)
 The following finite field(s) will be applied:
 An electric field of             -0.0060  0.0019 -0.0040
   351 basis functions,   555 primitive gaussians,   396 cartesian basis functions
    34 alpha electrons       34 beta electrons
       nuclear repulsion energy       445.1187918133 Hartrees.
 NAtoms=   21 NActive=   21 NUniq=   21 SFac= 1.00D+00 NAtFMM=   60 NAOKFM=F Big=F
 Integral buffers will be    131072 words long.
 Raffenetti 2 integral format.
 Two-electron integral symmetry is turned off.
 One-electron integrals computed using PRISM.
   1 Symmetry operations used in ECPInt.
 ECPInt:  NShTT=   10878 NPrTT=   32112 LenC2=   10635 LenP2D=   24939.
 LDataN:  DoStor=T MaxTD1= 6 Len=  172
 NBasis=   351 RedAO= T EigKep=  2.14D-05  NBF=   351
 NBsUse=   351 1.00D-06 EigRej= -1.00D+00 NBFU=   351
 The nuclear repulsion energy is now       443.0275922530 hartrees.
 Initial guess from the checkpoint file:  "checkpoint.chk"
 B after Tr=    -0.000000   -0.000000    0.000000
         Rot=    1.000000    0.000000   -0.000000   -0.000000 Ang=   0.00 deg.
 Requested convergence on RMS density matrix=1.00D-08 within 128 cycles.
 Requested convergence on MAX density matrix=1.00D-06.
 Requested convergence on             energy=1.00D-06.
 No special actions if energy rises.
 SCF Done:  E(RB3LYP) =  -387.294789881     A.U. after   11 cycles
            NFock= 11  Conv=0.29D-08     -V/T= 2.0053
 DoSCS=F DFT=T ScalE2(SS,OS)=  1.000000  1.000000
 Range of M.O.s used for correlation:     1   351
 NBasis=   351 NAE=    34 NBE=    34 NFC=     0 NFV=     0
 NROrb=    351 NOA=    34 NOB=    34 NVA=   317 NVB=   317

 **** Warning!!: The largest alpha MO coefficient is  0.33135388D+02

   1 Symmetry operations used in ECPInt.
 ECPInt:  NShTT=   10878 NPrTT=   32112 LenC2=   10635 LenP2D=   24939.
 LDataN:  DoStor=T MaxTD1= 7 Len=  274
 Symmetrizing basis deriv contribution to polar:
 IMax=3 JMax=2 DiffMx= 0.00D+00
 G2DrvN: will do    22 centers at a time, making    1 passes.
 Calling FoFCou, ICntrl=  3107 FMM=F I1Cent=   0 AccDes= 0.00D+00.
 End of G2Drv F.D. properties file   721 does not exist.
 End of G2Drv F.D. properties file   722 does not exist.
 End of G2Drv F.D. properties file   788 does not exist.
          IDoAtm=111111111111111111111
          Differentiating once with respect to nuclear coordinates.
 CalDSu exits because no D1Ps are significant.
          There are    66 degrees of freedom in the 1st order CPHF.  IDoFFX=6 NUNeed=     0.
     60 vectors produced by pass  0 Test12= 1.63D-14 1.52D-09 XBig12= 1.62D-01 1.40D-01.
 AX will form    60 AO Fock derivatives at one time.
     60 vectors produced by pass  1 Test12= 1.63D-14 1.52D-09 XBig12= 2.17D-02 3.23D-02.
     60 vectors produced by pass  2 Test12= 1.63D-14 1.52D-09 XBig12= 2.99D-04 2.09D-03.
     60 vectors produced by pass  3 Test12= 1.63D-14 1.52D-09 XBig12= 1.14D-06 1.14D-04.
     60 vectors produced by pass  4 Test12= 1.63D-14 1.52D-09 XBig12= 2.16D-09 5.60D-06.
     53 vectors produced by pass  5 Test12= 1.63D-14 1.52D-09 XBig12= 3.25D-12 2.14D-07.
      8 vectors produced by pass  6 Test12= 1.63D-14 1.52D-09 XBig12= 4.48D-15 7.66D-09.
 InvSVY:  IOpt=1 It=  1 EMax= 5.00D-16
 Solved reduced A of dimension   361 with    66 vectors.
 End of Minotr F.D. properties file   721 does not exist.
 End of Minotr F.D. properties file   722 does not exist.
 End of Minotr F.D. properties file   788 does not exist.
   1 Symmetry operations used in ECPInt.
 ECPInt:  NShTT=   10878 NPrTT=   32112 LenC2=   10635 LenP2D=   24939.
 LDataN:  DoStor=T MaxTD1= 8 Len=  415
 Calling FoFJK, ICntrl=    100147 FMM=F ISym2X=0 I1Cent= 0 IOpClX= 0 NMat=1 NMatS=1 NMatT=0.
 -------------------------------------------------------------------
 Center     Atomic                   Forces (Hartrees/Bohr)
 Number     Number              X              Y              Z
 -------------------------------------------------------------------
      1        1           0.000852062   -0.000216952   -0.000410313
      2        6           0.000505123   -0.000186371    0.000349106
      3        6          -0.000894441   -0.000027429    0.000174646
      4        8          -0.001602505    0.000462429   -0.001089147
      5        1          -0.000105774   -0.000109838    0.000096312
      6        6           0.000976944   -0.000108340    0.000992670
      7        6           0.000091123    0.000147231   -0.000599684
      8        6          -0.000111573    0.000100161   -0.000386575
      9        1          -0.000300265    0.000161372    0.000036979
     10        1           0.000042779   -0.000047744    0.000051400
     11        6           0.000253782   -0.000045240    0.000242120
     12        6           0.000729880   -0.000159868   -0.000092208
     13        1          -0.000089215    0.000023504    0.000104477
     14        1          -0.000082709   -0.000102781   -0.000049824
     15        1           0.000002236    0.000180458   -0.000003776
     16        1           0.000080079   -0.000140691    0.000179303
     17        6          -0.000266245    0.000091681    0.000413562
     18        1           0.000027025    0.000158785   -0.000030683
     19        1           0.000025309    0.000001027   -0.000132039
     20        1          -0.000129376   -0.000040469    0.000344470
     21        1          -0.000004239   -0.000140926   -0.000190795
 -------------------------------------------------------------------
 Cartesian Forces:  Max     0.001602505 RMS     0.000401054
 -----------------------------------------------------------------------------------------------
                       Internal Coordinate Forces (Hartree/Bohr or radian)
  Cent   Atom   N1       Length/X         N2         Alpha/Y        N3         Beta/Z          J
 -----------------------------------------------------------------------------------------------
      1  H 
      2  C        1   0.000410(     1)
      3  C        2  -0.000534(     2)      1   0.001247(    21)
      4  O        2   0.000762(     3)      1   0.000098(    22)      3  -0.000522(    40)     0
      5  H        2   0.000172(     4)      1   0.000094(    23)      3  -0.000061(    41)     0
      6  C        4   0.001268(     5)      2  -0.001377(    24)      1  -0.000620(    42)     0
      7  C        3   0.000365(     6)      2   0.000848(    25)      1  -0.000413(    43)     0
      8  C        6   0.000075(     7)      4   0.000352(    26)      2  -0.000689(    44)     0
      9  H        6   0.000316(     8)      4  -0.000246(    27)      8  -0.000121(    45)     0
     10  H        6  -0.000022(     9)      4   0.000096(    28)      8  -0.000124(    46)     0
     11  C        7   0.000007(    10)      3   0.001138(    29)      2  -0.000405(    47)     0
     12  C        8   0.000481(    11)      6   0.000331(    30)      4  -0.000451(    48)     0
     13  H        8   0.000083(    12)      6  -0.000048(    31)     12  -0.000210(    49)     0
     14  H       11   0.000099(    13)      7  -0.000122(    32)      3   0.000034(    50)     0
     15  H       11  -0.000127(    14)      7   0.000036(    33)     14  -0.000245(    51)     0
     16  H       11  -0.000087(    15)      7   0.000035(    34)     14   0.000434(    52)     0
     17  C       12  -0.000506(    16)      8   0.000162(    35)      6  -0.000551(    53)     0
     18  H       12  -0.000124(    17)      8   0.000165(    36)     17  -0.000129(    54)     0
     19  H       17   0.000073(    18)     12   0.000077(    37)      8  -0.000214(    55)     0
     20  H       17  -0.000243(    19)     12  -0.000589(    38)     19  -0.000392(    56)     0
     21  H       17  -0.000105(    20)     12   0.000131(    39)     19   0.000368(    57)     0
 -----------------------------------------------------------------------------------------------
 Internal  Forces:  Max     0.001377222 RMS     0.000466660

 GradGradGradGradGradGradGradGradGradGradGradGradGradGradGradGradGradGrad
 Berny optimization.
 Search for a saddle point.
 Step number   1 out of a maximum of   67
 All quantities printed in internal units (Hartrees-Bohrs-Radians)
 Swapping is turned off.
 Second derivative matrix not updated -- analytic derivatives used.
 ITU=  0
     Eigenvalues ---   -0.31304   0.00446   0.00710   0.01186   0.01468
     Eigenvalues ---    0.03687   0.04460   0.05534   0.05874   0.07303
     Eigenvalues ---    0.08479   0.09484   0.09766   0.10830   0.11678
     Eigenvalues ---    0.12687   0.14318   0.15281   0.16793   0.16990
     Eigenvalues ---    0.18534   0.21111   0.21503   0.22238   0.22636
     Eigenvalues ---    0.23595   0.24241   0.25452   0.27389   0.28968
     Eigenvalues ---    0.29949   0.30429   0.31357   0.31401   0.32260
     Eigenvalues ---    0.32939   0.33145   0.33762   0.34517   0.34555
     Eigenvalues ---    0.34634   0.34739   0.35535   0.35746   0.35829
     Eigenvalues ---    0.36648   0.36980   0.40685   0.42069   0.43656
     Eigenvalues ---    0.46156   0.48172   0.69359   0.79598   1.54202
     Eigenvalues ---    3.23313   6.01210
 Eigenvectors required to have negative eigenvalues:
                          R20       A7        A11       R17       D8
   1                    0.56348  -0.39389  -0.37266  -0.23943   0.20343
                          R7        D17       R12       D12       A6
   1                    0.20153  -0.17745   0.17009   0.16648  -0.15758
 RFO step:  Lambda0=3.930997572D-07 Lambda=-7.03414416D-05.
 Linear search not attempted -- option 19 set.
 Variable       Old X    -DE/DX   Delta X   Delta X   Delta X     New X
                                 (Linear)    (Quad)   (Total)
    R2        2.07006   0.00041   0.00000   0.00091   0.00091   2.07097
    R3        2.76764  -0.00053   0.00000  -0.00352  -0.00352   2.76412
    R4        2.71891   0.00076   0.00000   0.00565   0.00565   2.72457
    R5        2.07210   0.00017   0.00000   0.00067   0.00067   2.07277
    R6        2.72042   0.00127   0.00000   0.00532   0.00532   2.72574
    R7        2.36157   0.00037   0.00000   0.00065   0.00065   2.36222
    R8        2.82918   0.00007   0.00000  -0.00177  -0.00177   2.82742
    R9        2.06672   0.00032   0.00000   0.00099   0.00099   2.06771
   R10        2.06851  -0.00002   0.00000  -0.00026  -0.00026   2.06825
   R11        2.80211   0.00001   0.00000   0.00011   0.00011   2.80222
   R12        2.60893   0.00048   0.00000   0.00135   0.00135   2.61028
   R13        2.05733   0.00008   0.00000   0.00030   0.00030   2.05763
   R14        2.06416   0.00010   0.00000   0.00003   0.00003   2.06420
   R15        2.06404  -0.00013   0.00000  -0.00027  -0.00027   2.06377
   R16        2.06441  -0.00009   0.00000  -0.00038  -0.00038   2.06404
   R17        2.65832  -0.00051   0.00000  -0.00227  -0.00227   2.65605
   R18        2.05148  -0.00012   0.00000  -0.00037  -0.00037   2.05111
   R19        2.05271   0.00007   0.00000  -0.00003  -0.00003   2.05268
   R20        2.53662  -0.00024   0.00000   0.00581   0.00581   2.54243
   R21        2.04952  -0.00011   0.00000  -0.00042  -0.00042   2.04910
    A3        1.93653   0.00125   0.00000   0.00992   0.00992   1.94645
    A4        1.86029   0.00010   0.00000  -0.00670  -0.00670   1.85359
    A5        1.88427   0.00009   0.00000  -0.00097  -0.00097   1.88330
    A6        1.95893  -0.00138   0.00000  -0.00366  -0.00366   1.95528
    A7        2.68257   0.00085   0.00000   0.00806   0.00806   2.69063
    A8        1.91368   0.00035   0.00000   0.00168   0.00168   1.91536
    A9        1.82692  -0.00025   0.00000  -0.00206  -0.00206   1.82486
   A10        1.93241   0.00010   0.00000  -0.00130  -0.00130   1.93111
   A11        2.56772   0.00114   0.00000   0.00680   0.00680   2.57452
   A12        2.26014   0.00033   0.00000  -0.00013  -0.00013   2.26000
   A13        1.94547  -0.00005   0.00000   0.00043   0.00043   1.94590
   A14        1.95183  -0.00012   0.00000   0.00073   0.00073   1.95256
   A15        1.93229   0.00004   0.00000  -0.00192  -0.00192   1.93037
   A16        1.93204   0.00003   0.00000   0.00067   0.00067   1.93271
   A17        2.16668   0.00016   0.00000   0.00068   0.00068   2.16736
   A18        2.01998   0.00017   0.00000   0.00040   0.00040   2.02038
   A19        2.08887   0.00008   0.00000   0.00226   0.00226   2.09114
   A20        1.63941  -0.00059   0.00000  -0.00451  -0.00451   1.63490
   A21        2.05746   0.00013   0.00000   0.00200   0.00200   2.05947
    D4        2.10465  -0.00052   0.00000   0.00247   0.00247   2.10712
    D5       -2.13418  -0.00006   0.00000  -0.00309  -0.00309  -2.13727
    D6       -2.37649  -0.00062   0.00000  -0.01766  -0.01766  -2.39415
    D7        0.04866  -0.00041   0.00000  -0.01126  -0.01126   0.03740
    D8       -0.60074  -0.00069   0.00000   0.00548   0.00548  -0.59526
    D9       -2.08237  -0.00012   0.00000  -0.00186  -0.00186  -2.08423
   D10        2.16777  -0.00012   0.00000  -0.00047  -0.00047   2.16730
   D11       -0.42096  -0.00041   0.00000  -0.00451  -0.00451  -0.42547
   D12        2.54835  -0.00045   0.00000  -0.00154  -0.00154   2.54681
   D13        2.72274  -0.00021   0.00000  -0.00248  -0.00248   2.72025
   D14        0.06653   0.00003   0.00000   0.01450   0.01450   0.08103
   D15       -2.10813  -0.00025   0.00000   0.00023   0.00023  -2.10790
   D16        2.11464   0.00043   0.00000   0.00323   0.00323   2.11786
   D17       -0.72466  -0.00055   0.00000  -0.00159  -0.00159  -0.72624
   D18       -2.72613  -0.00013   0.00000  -0.00196  -0.00196  -2.72809
   D19        0.70401  -0.00021   0.00000  -0.00655  -0.00655   0.69747
   D20       -1.75755  -0.00039   0.00000   0.00568   0.00568  -1.75187
   D21        2.52755   0.00037   0.00000   0.01111   0.01111   2.53867
         Item               Value     Threshold  Converged?
 Maximum Force            0.001377     0.000450     NO 
 RMS     Force            0.000467     0.000300     NO 
 Maximum Displacement     0.017662     0.001800     NO 
 RMS     Displacement     0.004912     0.001200     NO 
 Predicted change in Energy=-3.502256D-05
 GradGradGradGradGradGradGradGradGradGradGradGradGradGradGradGradGradGrad

 ---------------------------------------------------------------------------------------------------
                            Z-MATRIX (ANGSTROMS AND DEGREES)
   CD    Cent   Atom    N1       Length/X        N2       Alpha/Y        N3        Beta/Z          J
 ---------------------------------------------------------------------------------------------------
      1      1  H 
      2      2  C        1   1.095910(     1)
      3      3  C        2   1.462707(     2)      1  111.523(    21)
      4      4  O        2   1.441778(     3)      1  106.203(    22)      3  120.729(    40)      0
      5      5  H        2   1.096864(     4)      1  107.905(    23)      3 -122.457(    41)      0
      6      6  C        4   1.442400(     5)      2  112.029(    24)      1 -137.175(    42)      0
      7      7  C        3   1.250033(     6)      2  154.161(    25)      1    2.143(    43)      0
      8      8  C        6   1.496204(     7)      4  109.742(    26)      2  -34.106(    44)      0
      9      9  H        6   1.094185(     8)      4  104.557(    27)      8 -119.417(    45)      0
     10     10  H        6   1.094472(     9)      4  110.645(    28)      8  124.177(    46)      0
     11     11  C        7   1.482871(    10)      3  147.509(    29)      2  -24.378(    47)      0
     12     12  C        8   1.381303(    11)      6  129.489(    30)      4  145.921(    48)      0
     13     13  H        8   1.088852(    12)      6  111.492(    31)     12  155.859(    49)      0
     14     14  H       11   1.092325(    13)      7  111.873(    32)      3    4.643(    50)      0
     15     15  H       11   1.092102(    14)      7  110.602(    33)     14 -120.774(    51)      0
     16     16  H       11   1.092243(    15)      7  110.736(    34)     14  121.345(    52)      0
     17     17  C       12   1.405519(    16)      8  124.181(    35)      6  -41.611(    53)      0
     18     18  H       12   1.085403(    17)      8  115.759(    36)     17 -156.308(    54)      0
     19     19  H       17   1.086229(    18)     12  119.813(    37)      8   39.962(    55)      0
     20     20  H       17   1.345397(    19)     12   93.673(    38)     19 -100.375(    56)      0
     21     21  H       17   1.084338(    20)     12  117.999(    39)     19  145.455(    57)      0
 ---------------------------------------------------------------------------------------------------
                         Z-Matrix orientation:                         
 ---------------------------------------------------------------------
 Center     Atomic      Atomic             Coordinates (Angstroms)
 Number     Number       Type             X           Y           Z
 ---------------------------------------------------------------------
      1          1           0        0.000000    0.000000    0.000000
      2          6           0        0.000000    0.000000    1.095910
      3          6           0        1.360709    0.000000    1.632550
      4          8           0       -0.707461    1.190113    1.498221
      5          1           0       -0.560133   -0.880704    1.433136
      6          6           0       -0.051810    1.865905    2.590899
      7          6           0        2.607059    0.020369    1.538850
      8          6           0        0.588309    0.860746    3.495624
      9          1           0       -0.854865    2.405239    3.102231
     10          1           0        0.669115    2.598418    2.214654
     11          6           0        3.803891   -0.263379    0.710606
     12          6           0        1.757730    0.954271    4.224805
     13          1           0       -0.141697    0.153441    3.886020
     14          1           0        3.533871   -0.599657   -0.292978
     15          1           0        4.419199   -1.036089    1.176443
     16          1           0        4.433356    0.624977    0.623474
     17          6           0        2.946545    1.526783    3.740621
     18          1           0        1.869678    0.236129    5.030931
     19          1           0        2.904593    2.427575    3.135057
     20          1           0        3.058211    0.649230    2.726952
     21          1           0        3.831084    1.467839    4.365045
 ---------------------------------------------------------------------
                    Distance matrix (angstroms):
                    1          2          3          4          5
     1  H    0.000000
     2  C    1.095910   0.000000
     3  C    2.125265   1.462707   0.000000
     4  O    2.039985   1.441778   2.389925   0.000000
     5  H    1.772926   1.096864   2.122508   2.077072   0.000000
     6  C    3.193281   2.391501   2.528882   1.442400   3.023685
     7  C    3.027413   2.644498   1.250033   3.515110   3.294574
     8  C    3.647791   2.616413   2.192836   2.403564   2.933501
     9  H    4.017438   3.246736   3.585234   2.017699   3.697320
    10  H    3.479107   2.907074   2.751168   2.095605   3.771752
    11  C    3.878649   3.832417   2.624593   4.804714   4.466302
    12  C    4.674315   3.713520   2.790706   3.683347   4.066084
    13  H    3.891629   2.797916   2.712728   2.663900   2.694659
    14  H    3.596341   3.844066   2.964773   4.939693   4.451890
    15  H    4.689010   4.539745   3.261269   5.598407   4.988365
    16  H    4.520394   4.502048   3.293932   5.245242   5.278027
    17  C    5.000544   4.243547   3.047934   4.300403   4.839140
    18  H    5.372311   4.363008   3.444387   4.475687   4.482793
    19  H    4.915116   4.299756   3.245647   4.154212   5.083854
    20  H    4.148545   3.526252   2.121492   3.997828   4.136070
    21  H    5.990440   5.245855   3.965329   5.375333   5.778801
                    6          7          8          9         10
     6  C    0.000000
     7  C    3.403292   0.000000
     8  C    1.496204   2.934374   0.000000
     9  H    1.094185   4.485163   2.150109   0.000000
    10  H    1.094472   3.295251   2.160305   1.774155   0.000000
    11  C    4.789132   1.482871   4.399994   5.877534   4.503207
    12  C    2.602914   2.967808   1.381303   3.192356   2.815850
    13  H    2.148943   3.616985   1.088852   2.488681   3.070635
    14  H    5.220426   2.144529   5.016235   6.310138   4.972196
    15  H    5.514723   2.128683   4.863363   6.585374   5.324533
    16  H    5.052462   2.130451   4.805124   6.105641   4.538264
    17  C    3.229086   2.689299   2.462703   3.953472   2.943411
    18  H    3.507427   3.575600   2.095047   3.980962   3.866934
    19  H    3.058088   2.903626   2.819598   3.759667   2.423570
    20  H    3.342311   1.417953   2.595383   4.305412   3.125631
    21  H    4.287530   3.403055   3.411751   4.942827   3.987536
                   11         12         13         14         15
    11  C    0.000000
    12  C    4.244884   0.000000
    13  H    5.081797   2.089002   0.000000
    14  H    1.092325   5.097031   5.616136   0.000000
    15  H    1.092102   4.509706   5.436778   1.770163   0.000000
    16  H    1.092243   4.498555   5.638942   1.774453   1.750747
    17  C    3.622252   1.405519   3.382965   4.597458   3.913058
    18  H    4.759821   1.085403   2.315878   5.640220   4.793294
    19  H    3.732014   2.161821   3.874986   4.616443   4.257601
    20  H    2.335497   2.006954   3.439282   3.302415   2.663956
    21  H    4.043857   2.140611   4.211900   5.104904   4.096671
                   16         17         18         19         20
    16  H    0.000000
    17  C    3.569379   0.000000
    18  H    5.113641   2.119040   0.000000
    19  H    3.448844   1.086229   3.076983   0.000000
    20  H    2.513212   1.345397   2.625182   1.831027   0.000000
    21  H    3.882332   1.084338   2.409902   1.814483   1.987662
                   21
    21  H    0.000000
 Symmetry turned off by external request.
 Stoichiometry    C8H12O
 Framework group  C1[X(C8H12O)]
 Deg. of freedom    57
 Full point group                 C1      NOp   1
 Rotational constants (GHZ):           1.9944358           1.4896869           0.9599588
 Standard basis: def2TZVP (5D, 7F)
 The following finite field(s) will be applied:
 An electric field of             -0.0060  0.0019 -0.0040
   351 basis functions,   555 primitive gaussians,   396 cartesian basis functions
    34 alpha electrons       34 beta electrons
       nuclear repulsion energy       444.9679548577 Hartrees.
 NAtoms=   21 NActive=   21 NUniq=   21 SFac= 1.00D+00 NAtFMM=   60 NAOKFM=F Big=F
 Integral buffers will be    131072 words long.
 Raffenetti 2 integral format.
 Two-electron integral symmetry is turned off.
 One-electron integrals computed using PRISM.
   1 Symmetry operations used in ECPInt.
 ECPInt:  NShTT=   10878 NPrTT=   32112 LenC2=   10633 LenP2D=   24934.
 LDataN:  DoStor=T MaxTD1= 6 Len=  172
 NBasis=   351 RedAO= T EigKep=  2.09D-05  NBF=   351
 NBsUse=   351 1.00D-06 EigRej= -1.00D+00 NBFU=   351
 The nuclear repulsion energy is now       442.8731601393 hartrees.
 Initial guess from the checkpoint file:  "checkpoint.chk"
 B after Tr=     0.035717   -0.000125    0.001518
         Rot=    0.999968   -0.000563    0.007761    0.001879 Ang=  -0.92 deg.
 Requested convergence on RMS density matrix=1.00D-08 within 128 cycles.
 Requested convergence on MAX density matrix=1.00D-06.
 Requested convergence on             energy=1.00D-06.
 No special actions if energy rises.
 SCF Done:  E(RB3LYP) =  -387.294824875     A.U. after   10 cycles
            NFock= 10  Conv=0.52D-08     -V/T= 2.0053
   1 Symmetry operations used in ECPInt.
 ECPInt:  NShTT=   10878 NPrTT=   32112 LenC2=   10633 LenP2D=   24934.
 LDataN:  DoStor=T MaxTD1= 7 Len=  274
 Calling FoFJK, ICntrl=      2127 FMM=F ISym2X=0 I1Cent= 0 IOpClX= 0 NMat=1 NMatS=1 NMatT=0.
 -------------------------------------------------------------------
 Center     Atomic                   Forces (Hartrees/Bohr)
 Number     Number              X              Y              Z
 -------------------------------------------------------------------
      1        1           0.001587872   -0.000429477   -0.000002817
      2        6          -0.001594729    0.000645569    0.000003577
      3        6           0.000014761   -0.000225110    0.000003517
      4        8          -0.000003550    0.000007935   -0.000010492
      5        1           0.000000510   -0.000000854   -0.000002996
      6        6           0.000004810    0.000003286    0.000008422
      7        6           0.000000271   -0.000003710   -0.000008058
      8        6          -0.000002921    0.000001608    0.000012763
      9        1          -0.000000334   -0.000000016    0.000000612
     10        1           0.000000373    0.000000549   -0.000000750
     11        6           0.000001257   -0.000003897   -0.000003141
     12        6          -0.000011636   -0.000006648   -0.000002445
     13        1          -0.000000322    0.000001025    0.000001573
     14        1           0.000001277   -0.000000628   -0.000001629
     15        1           0.000000022   -0.000000850   -0.000000661
     16        1          -0.000001214    0.000000953    0.000000558
     17        6           0.000009370    0.000001493   -0.000007723
     18        1          -0.000000502    0.000000204    0.000000556
     19        1          -0.000002073    0.000000695   -0.000001604
     20        1          -0.000003782    0.000010339    0.000010033
     21        1           0.000000541   -0.000002467    0.000000707
 -------------------------------------------------------------------
 Cartesian Forces:  Max     0.001594729 RMS     0.000301262
 -----------------------------------------------------------------------------------------------
                       Internal Coordinate Forces (Hartree/Bohr or radian)
  Cent   Atom   N1       Length/X         N2         Alpha/Y        N3         Beta/Z          J
 -----------------------------------------------------------------------------------------------
      1  H 
      2  C        1   0.000003(     1)
      3  C        2   0.000012(     2)      1  -0.000077(    21)
      4  O        2   0.000023(     3)      1  -0.000049(    22)      3   0.000026(    40)     0
      5  H        2  -0.000000(     4)      1  -0.000006(    23)      3   0.000002(    41)     0
      6  C        4   0.000019(     5)      2   0.000076(    24)      1  -0.000050(    42)     0
      7  C        3   0.000002(     6)      2  -0.000035(    25)      1  -0.000013(    43)     0
      8  C        6  -0.000001(     7)      4   0.000032(    26)      2  -0.000029(    44)     0
      9  H        6   0.000001(     8)      4   0.000000(    27)      8   0.000001(    45)     0
     10  H        6   0.000001(     9)      4  -0.000001(    28)      8   0.000000(    46)     0
     11  C        7   0.000005(    10)      3  -0.000008(    29)      2  -0.000001(    47)     0
     12  C        8  -0.000007(    11)      6  -0.000009(    30)      4   0.000021(    48)     0
     13  H        8   0.000000(    12)      6   0.000000(    31)     12  -0.000004(    49)     0
     14  H       11   0.000001(    13)      7   0.000003(    32)      3   0.000001(    50)     0
     15  H       11   0.000000(    14)      7   0.000001(    33)     14   0.000002(    51)     0
     16  H       11   0.000000(    15)      7  -0.000003(    34)     14  -0.000001(    52)     0
     17  C       12   0.000007(    16)      8  -0.000000(    35)      6   0.000018(    53)     0
     18  H       12   0.000000(    17)      8  -0.000000(    36)     17  -0.000001(    54)     0
     19  H       17   0.000002(    18)     12  -0.000004(    37)      8   0.000008(    55)     0
     20  H       17  -0.000015(    19)     12  -0.000004(    38)     19   0.000006(    56)     0
     21  H       17   0.000001(    20)     12  -0.000003(    39)     19   0.000004(    57)     0
 -----------------------------------------------------------------------------------------------
 Internal  Forces:  Max     0.000076979 RMS     0.000020178

 GradGradGradGradGradGradGradGradGradGradGradGradGradGradGradGradGradGrad
 Berny optimization.
 Search for a saddle point.
 Step number   2 out of a maximum of   67
 All quantities printed in internal units (Hartrees-Bohrs-Radians)
 Swapping is turned off.
 Update second derivatives using D2CorN and points    1    2
 ITU=  0  0
     Eigenvalues ---   -0.31301   0.00446   0.00710   0.01186   0.01465
     Eigenvalues ---    0.03683   0.04459   0.05535   0.05879   0.07304
     Eigenvalues ---    0.08477   0.09484   0.09769   0.10830   0.11679
     Eigenvalues ---    0.12687   0.14317   0.15281   0.16790   0.16990
     Eigenvalues ---    0.18534   0.21111   0.21502   0.22238   0.22636
     Eigenvalues ---    0.23595   0.24241   0.25452   0.27390   0.28969
     Eigenvalues ---    0.29949   0.30429   0.31357   0.31401   0.32260
     Eigenvalues ---    0.32939   0.33145   0.33762   0.34516   0.34555
     Eigenvalues ---    0.34634   0.34739   0.35535   0.35747   0.35829
     Eigenvalues ---    0.36648   0.36980   0.40685   0.42070   0.43656
     Eigenvalues ---    0.46157   0.48171   0.69359   0.79599   1.54204
     Eigenvalues ---    3.23313   6.01212
 Eigenvectors required to have negative eigenvalues:
                          R20       A7        A11       R17       D8
   1                    0.56326  -0.39424  -0.37290  -0.23937   0.20318
                          R7        D17       R12       D12       A6
   1                    0.20153  -0.17741   0.17007   0.16657  -0.15749
 RFO step:  Lambda0=4.642745022D-09 Lambda=-1.07075574D-08.
 Linear search not attempted -- option 19 set.
 Variable       Old X    -DE/DX   Delta X   Delta X   Delta X     New X
                                 (Linear)    (Quad)   (Total)
    R2        2.07097   0.00000   0.00000   0.00001   0.00001   2.07098
    R3        2.76412   0.00001   0.00000   0.00002   0.00002   2.76414
    R4        2.72457   0.00002   0.00000   0.00004   0.00004   2.72460
    R5        2.07277  -0.00000   0.00000  -0.00001  -0.00001   2.07277
    R6        2.72574   0.00002   0.00000   0.00005   0.00005   2.72579
    R7        2.36222   0.00000   0.00000   0.00002   0.00002   2.36224
    R8        2.82742  -0.00000   0.00000   0.00000   0.00000   2.82742
    R9        2.06771   0.00000   0.00000   0.00000   0.00000   2.06771
   R10        2.06825   0.00000   0.00000  -0.00000  -0.00000   2.06825
   R11        2.80222   0.00000   0.00000   0.00001   0.00001   2.80223
   R12        2.61028  -0.00001   0.00000   0.00001   0.00001   2.61029
   R13        2.05763   0.00000   0.00000  -0.00000  -0.00000   2.05763
   R14        2.06420   0.00000   0.00000   0.00000   0.00000   2.06420
   R15        2.06377   0.00000   0.00000   0.00000   0.00000   2.06378
   R16        2.06404   0.00000   0.00000  -0.00000  -0.00000   2.06404
   R17        2.65605   0.00001   0.00000   0.00000   0.00000   2.65605
   R18        2.05111   0.00000   0.00000  -0.00000  -0.00000   2.05111
   R19        2.05268   0.00000   0.00000   0.00000   0.00000   2.05268
   R20        2.54243  -0.00001   0.00000   0.00004   0.00004   2.54247
   R21        2.04910   0.00000   0.00000   0.00000   0.00000   2.04910
    A3        1.94645  -0.00008   0.00000   0.00001   0.00001   1.94646
    A4        1.85359  -0.00005   0.00000  -0.00006  -0.00006   1.85353
    A5        1.88330  -0.00001   0.00000   0.00002   0.00002   1.88332
    A6        1.95528   0.00008   0.00000   0.00000   0.00000   1.95528
    A7        2.69063  -0.00004   0.00000  -0.00010  -0.00010   2.69053
    A8        1.91536   0.00003   0.00000   0.00003   0.00003   1.91539
    A9        1.82486   0.00000   0.00000   0.00000   0.00000   1.82486
   A10        1.93111  -0.00000   0.00000  -0.00003  -0.00003   1.93108
   A11        2.57452  -0.00001   0.00000  -0.00007  -0.00007   2.57445
   A12        2.26000  -0.00001   0.00000  -0.00004  -0.00004   2.25996
   A13        1.94590   0.00000   0.00000   0.00002   0.00002   1.94592
   A14        1.95256   0.00000   0.00000   0.00001   0.00001   1.95257
   A15        1.93037   0.00000   0.00000  -0.00000  -0.00000   1.93037
   A16        1.93271  -0.00000   0.00000  -0.00001  -0.00001   1.93270
   A17        2.16736  -0.00000   0.00000  -0.00000  -0.00000   2.16736
   A18        2.02038  -0.00000   0.00000   0.00001   0.00001   2.02038
   A19        2.09114  -0.00000   0.00000  -0.00000  -0.00000   2.09113
   A20        1.63490  -0.00000   0.00000  -0.00001  -0.00001   1.63489
   A21        2.05947  -0.00000   0.00000  -0.00000  -0.00000   2.05946
    D4        2.10712   0.00003   0.00000  -0.00010  -0.00010   2.10702
    D5       -2.13727   0.00000   0.00000  -0.00007  -0.00007  -2.13734
    D6       -2.39415  -0.00005   0.00000  -0.00015  -0.00015  -2.39430
    D7        0.03740  -0.00001   0.00000  -0.00003  -0.00003   0.03737
    D8       -0.59526  -0.00003   0.00000   0.00024   0.00024  -0.59502
    D9       -2.08423   0.00000   0.00000  -0.00002  -0.00002  -2.08424
   D10        2.16730   0.00000   0.00000  -0.00001  -0.00001   2.16729
   D11       -0.42547  -0.00000   0.00000  -0.00002  -0.00002  -0.42549
   D12        2.54681   0.00002   0.00000  -0.00010  -0.00010   2.54671
   D13        2.72025  -0.00000   0.00000  -0.00005  -0.00005   2.72021
   D14        0.08103   0.00000   0.00000   0.00017   0.00017   0.08120
   D15       -2.10790   0.00000   0.00000   0.00000   0.00000  -2.10790
   D16        2.11786  -0.00000   0.00000   0.00000   0.00000   2.11787
   D17       -0.72624   0.00002   0.00000   0.00000   0.00000  -0.72624
   D18       -2.72809  -0.00000   0.00000  -0.00003  -0.00003  -2.72812
   D19        0.69747   0.00001   0.00000  -0.00004  -0.00004   0.69742
   D20       -1.75187   0.00001   0.00000   0.00005   0.00005  -1.75182
   D21        2.53867   0.00000   0.00000   0.00007   0.00007   2.53874
         Item               Value     Threshold  Converged?
 Maximum Force            0.000077     0.000450     YES
 RMS     Force            0.000020     0.000300     YES
 Maximum Displacement     0.000239     0.001800     YES
 RMS     Displacement     0.000056     0.001200     YES
 Predicted change in Energy=-3.032406D-09
 Optimization completed.
    -- Stationary point found.
                       ----------------------------
                       !   Optimized Parameters   !
                       ! (Angstroms and Degrees)  !
 ----------------------                            ----------------------
 !      Name          Value   Derivative information (Atomic Units)     !
 ------------------------------------------------------------------------
 !       R2          1.0959   -DE/DX =    0.0                           !
 !       R3          1.4627   -DE/DX =    0.0                           !
 !       R4          1.4418   -DE/DX =    0.0                           !
 !       R5          1.0969   -DE/DX =    0.0                           !
 !       R6          1.4424   -DE/DX =    0.0                           !
 !       R7          1.25     -DE/DX =    0.0                           !
 !       R8          1.4962   -DE/DX =    0.0                           !
 !       R9          1.0942   -DE/DX =    0.0                           !
 !       R10         1.0945   -DE/DX =    0.0                           !
 !       R11         1.4829   -DE/DX =    0.0                           !
 !       R12         1.3813   -DE/DX =    0.0                           !
 !       R13         1.0889   -DE/DX =    0.0                           !
 !       R14         1.0923   -DE/DX =    0.0                           !
 !       R15         1.0921   -DE/DX =    0.0                           !
 !       R16         1.0922   -DE/DX =    0.0                           !
 !       R17         1.4055   -DE/DX =    0.0                           !
 !       R18         1.0854   -DE/DX =    0.0                           !
 !       R19         1.0862   -DE/DX =    0.0                           !
 !       R20         1.3454   -DE/DX =    0.0                           !
 !       R21         1.0843   -DE/DX =    0.0                           !
 !       A3        111.5234   -DE/DX =   -0.0001                        !
 !       A4        106.2028   -DE/DX =    0.0                           !
 !       A5        107.9053   -DE/DX =    0.0                           !
 !       A6        112.029    -DE/DX =    0.0001                        !
 !       A7        154.1615   -DE/DX =    0.0                           !
 !       A8        109.7422   -DE/DX =    0.0                           !
 !       A9        104.5567   -DE/DX =    0.0                           !
 !       A10       110.6445   -DE/DX =    0.0                           !
 !       A11       147.509    -DE/DX =    0.0                           !
 !       A12       129.4885   -DE/DX =    0.0                           !
 !       A13       111.4917   -DE/DX =    0.0                           !
 !       A14       111.8735   -DE/DX =    0.0                           !
 !       A15       110.6022   -DE/DX =    0.0                           !
 !       A16       110.7361   -DE/DX =    0.0                           !
 !       A17       124.1806   -DE/DX =    0.0                           !
 !       A18       115.759    -DE/DX =    0.0                           !
 !       A19       119.8133   -DE/DX =    0.0                           !
 !       A20        93.6731   -DE/DX =    0.0                           !
 !       A21       117.9987   -DE/DX =    0.0                           !
 !       D4        120.7293   -DE/DX =    0.0                           !
 !       D5       -122.4566   -DE/DX =    0.0                           !
 !       D6       -137.1748   -DE/DX =   -0.0001                        !
 !       D7          2.1427   -DE/DX =    0.0                           !
 !       D8        -34.1058   -DE/DX =    0.0                           !
 !       D9       -119.4173   -DE/DX =    0.0                           !
 !       D10       124.1773   -DE/DX =    0.0                           !
 !       D11       -24.3775   -DE/DX =    0.0                           !
 !       D12       145.9213   -DE/DX =    0.0                           !
 !       D13       155.859    -DE/DX =    0.0                           !
 !       D14         4.6426   -DE/DX =    0.0                           !
 !       D15      -120.7736   -DE/DX =    0.0                           !
 !       D16       121.3447   -DE/DX =    0.0                           !
 !       D17       -41.6107   -DE/DX =    0.0                           !
 !       D18      -156.3079   -DE/DX =    0.0                           !
 !       D19        39.9619   -DE/DX =    0.0                           !
 !       D20      -100.375    -DE/DX =    0.0                           !
 !       D21       145.4548   -DE/DX =    0.0                           !
 ------------------------------------------------------------------------
 GradGradGradGradGradGradGradGradGradGradGradGradGradGradGradGradGradGrad

 ---------------------------------------------------------------------------------------------------
                            Z-MATRIX (ANGSTROMS AND DEGREES)
   CD    Cent   Atom    N1       Length/X        N2       Alpha/Y        N3        Beta/Z          J
 ---------------------------------------------------------------------------------------------------
      1      1  H 
      2      2  C        1   1.095910(     1)
      3      3  C        2   1.462707(     2)      1  111.523(    21)
      4      4  O        2   1.441778(     3)      1  106.203(    22)      3  120.729(    40)      0
      5      5  H        2   1.096864(     4)      1  107.905(    23)      3 -122.457(    41)      0
      6      6  C        4   1.442400(     5)      2  112.029(    24)      1 -137.175(    42)      0
      7      7  C        3   1.250033(     6)      2  154.161(    25)      1    2.143(    43)      0
      8      8  C        6   1.496204(     7)      4  109.742(    26)      2  -34.106(    44)      0
      9      9  H        6   1.094185(     8)      4  104.557(    27)      8 -119.417(    45)      0
     10     10  H        6   1.094472(     9)      4  110.645(    28)      8  124.177(    46)      0
     11     11  C        7   1.482871(    10)      3  147.509(    29)      2  -24.378(    47)      0
     12     12  C        8   1.381303(    11)      6  129.489(    30)      4  145.921(    48)      0
     13     13  H        8   1.088852(    12)      6  111.492(    31)     12  155.859(    49)      0
     14     14  H       11   1.092325(    13)      7  111.873(    32)      3    4.643(    50)      0
     15     15  H       11   1.092102(    14)      7  110.602(    33)     14 -120.774(    51)      0
     16     16  H       11   1.092243(    15)      7  110.736(    34)     14  121.345(    52)      0
     17     17  C       12   1.405519(    16)      8  124.181(    35)      6  -41.611(    53)      0
     18     18  H       12   1.085403(    17)      8  115.759(    36)     17 -156.308(    54)      0
     19     19  H       17   1.086229(    18)     12  119.813(    37)      8   39.962(    55)      0
     20     20  H       17   1.345397(    19)     12   93.673(    38)     19 -100.375(    56)      0
     21     21  H       17   1.084338(    20)     12  117.999(    39)     19  145.455(    57)      0
 ---------------------------------------------------------------------------------------------------
                         Z-Matrix orientation:                         
 ---------------------------------------------------------------------
 Center     Atomic      Atomic             Coordinates (Angstroms)
 Number     Number       Type             X           Y           Z
 ---------------------------------------------------------------------
      1          1           0        0.000000    0.000000    0.000000
      2          6           0        0.000000    0.000000    1.095910
      3          6           0        1.360709    0.000000    1.632550
      4          8           0       -0.707461    1.190113    1.498221
      5          1           0       -0.560133   -0.880704    1.433136
      6          6           0       -0.051810    1.865905    2.590899
      7          6           0        2.607059    0.020369    1.538850
      8          6           0        0.588309    0.860746    3.495624
      9          1           0       -0.854865    2.405239    3.102231
     10          1           0        0.669115    2.598418    2.214654
     11          6           0        3.803891   -0.263379    0.710606
     12          6           0        1.757730    0.954271    4.224805
     13          1           0       -0.141697    0.153441    3.886020
     14          1           0        3.533871   -0.599657   -0.292978
     15          1           0        4.419199   -1.036089    1.176443
     16          1           0        4.433356    0.624977    0.623474
     17          6           0        2.946545    1.526783    3.740621
     18          1           0        1.869678    0.236129    5.030931
     19          1           0        2.904593    2.427575    3.135057
     20          1           0        3.058211    0.649230    2.726952
     21          1           0        3.831084    1.467839    4.365045
 ---------------------------------------------------------------------
                    Distance matrix (angstroms):
                    1          2          3          4          5
     1  H    0.000000
     2  C    1.095910   0.000000
     3  C    2.125265   1.462707   0.000000
     4  O    2.039985   1.441778   2.389925   0.000000
     5  H    1.772926   1.096864   2.122508   2.077072   0.000000
     6  C    3.193281   2.391501   2.528882   1.442400   3.023685
     7  C    3.027413   2.644498   1.250033   3.515110   3.294574
     8  C    3.647791   2.616413   2.192836   2.403564   2.933501
     9  H    4.017438   3.246736   3.585234   2.017699   3.697320
    10  H    3.479107   2.907074   2.751168   2.095605   3.771752
    11  C    3.878649   3.832417   2.624593   4.804714   4.466302
    12  C    4.674315   3.713520   2.790706   3.683347   4.066084
    13  H    3.891629   2.797916   2.712728   2.663900   2.694659
    14  H    3.596341   3.844066   2.964773   4.939693   4.451890
    15  H    4.689010   4.539745   3.261269   5.598407   4.988365
    16  H    4.520394   4.502048   3.293932   5.245242   5.278027
    17  C    5.000544   4.243547   3.047934   4.300403   4.839140
    18  H    5.372311   4.363008   3.444387   4.475687   4.482793
    19  H    4.915116   4.299756   3.245647   4.154212   5.083854
    20  H    4.148545   3.526252   2.121492   3.997828   4.136070
    21  H    5.990440   5.245855   3.965329   5.375333   5.778801
                    6          7          8          9         10
     6  C    0.000000
     7  C    3.403292   0.000000
     8  C    1.496204   2.934374   0.000000
     9  H    1.094185   4.485163   2.150109   0.000000
    10  H    1.094472   3.295251   2.160305   1.774155   0.000000
    11  C    4.789132   1.482871   4.399994   5.877534   4.503207
    12  C    2.602914   2.967808   1.381303   3.192356   2.815850
    13  H    2.148943   3.616985   1.088852   2.488681   3.070635
    14  H    5.220426   2.144529   5.016235   6.310138   4.972196
    15  H    5.514723   2.128683   4.863363   6.585374   5.324533
    16  H    5.052462   2.130451   4.805124   6.105641   4.538264
    17  C    3.229086   2.689299   2.462703   3.953472   2.943411
    18  H    3.507427   3.575600   2.095047   3.980962   3.866934
    19  H    3.058088   2.903626   2.819598   3.759667   2.423570
    20  H    3.342311   1.417953   2.595383   4.305412   3.125631
    21  H    4.287530   3.403055   3.411751   4.942827   3.987536
                   11         12         13         14         15
    11  C    0.000000
    12  C    4.244884   0.000000
    13  H    5.081797   2.089002   0.000000
    14  H    1.092325   5.097031   5.616136   0.000000
    15  H    1.092102   4.509706   5.436778   1.770163   0.000000
    16  H    1.092243   4.498555   5.638942   1.774453   1.750747
    17  C    3.622252   1.405519   3.382965   4.597458   3.913058
    18  H    4.759821   1.085403   2.315878   5.640220   4.793294
    19  H    3.732014   2.161821   3.874986   4.616443   4.257601
    20  H    2.335497   2.006954   3.439282   3.302415   2.663956
    21  H    4.043857   2.140611   4.211900   5.104904   4.096671
                   16         17         18         19         20
    16  H    0.000000
    17  C    3.569379   0.000000
    18  H    5.113641   2.119040   0.000000
    19  H    3.448844   1.086229   3.076983   0.000000
    20  H    2.513212   1.345397   2.625182   1.831027   0.000000
    21  H    3.882332   1.084338   2.409902   1.814483   1.987662
                   21
    21  H    0.000000
 Symmetry turned off by external request.
 Stoichiometry    C8H12O
 Framework group  C1[X(C8H12O)]
 Deg. of freedom    57
 Full point group                 C1      NOp   1
 Rotational constants (GHZ):           1.9944358           1.4896869           0.9599588
 1\1\GINC-BHC0108\FTS\RB3LYP\def2TZVP\C8H12O1\DHANAWAY\11-Jun-2022\1\\#
  Opt=(TS, CalcFC, noeigentest, Z-matrix, MaxStep=10) geom=allcheckpoin
 t guess=read Field=read NoSymm B3LYP/Def2TZVP freq=noraman pop=none\\t
 s_zmat_initalOpt\\0,1\H\C,1,R2\C,2,R3,1,A3\O,2,R4,1,A4,3,D4,0\H,2,R5,1
 ,A5,3,D5,0\C,4,R6,2,A6,1,D6,0\C,3,R7,2,A7,1,D7,0\C,6,R8,4,A8,2,D8,0\H,
 6,R9,4,A9,8,D9,0\H,6,R10,4,A10,8,D10,0\C,7,R11,3,A11,2,D11,0\C,8,R12,6
 ,A12,4,D12,0\H,8,R13,6,A13,12,D13,0\H,11,R14,7,A14,3,D14,0\H,11,R15,7,
 A15,14,D15,0\H,11,R16,7,A16,14,D16,0\C,12,R17,8,A17,6,D17,0\H,12,R18,8
 ,A18,17,D18,0\H,17,R19,12,A19,8,D19,0\H,17,R20,12,A20,19,D20,0\H,17,R2
 1,12,A21,19,D21,0\\R2=1.09591026\R3=1.46270688\R4=1.44177838\R5=1.0968
 6403\R6=1.44239977\R7=1.25003339\R8=1.49620365\R9=1.09418453\R10=1.094
 47156\R11=1.4828715\R12=1.38130273\R13=1.08885241\R14=1.09232547\R15=1
 .09210238\R16=1.09224269\R17=1.40551925\R18=1.08540284\R19=1.08622947\
 R20=1.34539706\R21=1.08433809\A3=111.52341436\A4=106.20280807\A5=107.9
 0534097\A6=112.02904576\A7=154.16147006\A8=109.74219185\A9=104.5567303
 4\A10=110.6445201\A11=147.5089578\A12=129.48852053\A13=111.49172194\A1
 4=111.8734507\A15=110.60223773\A16=110.73605344\A17=124.1805957\A18=11
 5.75896646\A19=119.81329091\A20=93.67308465\A21=117.99869166\D4=120.72
 932207\D5=-122.45660992\D6=-137.17475221\D7=2.14268658\D8=-34.10584299
 \D9=-119.41731479\D10=124.17727787\D11=-24.37754487\D12=145.92131681\D
 13=155.85904309\D14=4.64261765\D15=-120.77363066\D16=121.34466614\D17=
 -41.61070029\D18=-156.30792993\D19=39.96187936\D20=-100.37499419\D21=1
 45.45482575\\Version=ES64L-G16RevA.03\HF=-387.2948249\RMSD=5.217e-09\R
 MSF=3.013e-04\Dipole=1.4576559,-0.3582318,0.4189188\PG=C01 [X(C8H12O1)
 ]\\@


 SACRED COWS MAKE GREAT HAMBURGERS -- ROBERT REISNER
 Job cpu time:       0 days  2 hours 58 minutes 32.4 seconds.
 Elapsed time:       0 days  0 hours 14 minutes 58.9 seconds.
 File lengths (MBytes):  RWF=    203 Int=      0 D2E=      0 Chk=     32 Scr=      1
 Normal termination of Gaussian 16 at Sat Jun 11 00:43:23 2022.
 Link1:  Proceeding to internal job step number  2.
 --------------------------------------------------------------------
 #N Geom=AllCheck Guess=TCheck SCRF=Check GenChk RB3LYP/def2TZVP Freq
 --------------------------------------------------------------------
 1/5=1,8=10,10=4,11=1,29=7,30=1,38=1,40=1/1,3;
 2/12=2,15=1,40=1/2;
 3/5=44,7=101,11=2,14=-4,25=1,30=1,70=2,71=2,74=-5,116=1,140=1/1,2,3;
 4/5=101/1;
 5/5=2,38=6,98=1/2;
 8/6=4,10=90,11=11/1;
 11/6=1,8=1,9=11,15=111,16=1,31=1/1,2,10;
 10/6=1,31=1/2;
 7/8=1,10=1,25=1,30=1/1,2,3,16;
 1/5=1,8=10,10=4,11=1,30=1/3;
 99//99;
 Structure from the checkpoint file:  "checkpoint.chk"
 -----------------
 ts_zmat_initalOpt
 -----------------
 Charge =  0 Multiplicity = 1
 Z-Matrix found in chk file.
 H
 C,1,R2
 C,2,R3,1,A3
 O,2,R4,1,A4,3,D4,0
 H,2,R5,1,A5,3,D5,0
 C,4,R6,2,A6,1,D6,0
 C,3,R7,2,A7,1,D7,0
 C,6,R8,4,A8,2,D8,0
 H,6,R9,4,A9,8,D9,0
 H,6,R10,4,A10,8,D10,0
 C,7,R11,3,A11,2,D11,0
 C,8,R12,6,A12,4,D12,0
 H,8,R13,6,A13,12,D13,0
 H,11,R14,7,A14,3,D14,0
 H,11,R15,7,A15,14,D15,0
 H,11,R16,7,A16,14,D16,0
 C,12,R17,8,A17,6,D17,0
 H,12,R18,8,A18,17,D18,0
 H,17,R19,12,A19,8,D19,0
 H,17,R20,12,A20,19,D20,0
 H,17,R21,12,A21,19,D21,0
      Variables:
 R2=1.09591026
 R3=1.46270688
 R4=1.44177838
 R5=1.09686403
 R6=1.44239977
 R7=1.25003339
 R8=1.49620365
 R9=1.09418453
 R10=1.09447156
 R11=1.4828715
 R12=1.38130273
 R13=1.08885241
 R14=1.09232547
 R15=1.09210238
 R16=1.09224269
 R17=1.40551925
 R18=1.08540284
 R19=1.08622947
 R20=1.34539706
 R21=1.08433809
 A3=111.52341436
 A4=106.20280807
 A5=107.90534097
 A6=112.02904576
 A7=154.16147006
 A8=109.74219185
 A9=104.55673034
 A10=110.6445201
 A11=147.5089578
 A12=129.48852053
 A13=111.49172194
 A14=111.8734507
 A15=110.60223773
 A16=110.73605344
 A17=124.1805957
 A18=115.75896646
 A19=119.81329091
 A20=93.67308465
 A21=117.99869166
 D4=120.72932207
 D5=-122.45660992
 D6=-137.17475221
 D7=2.14268658
 D8=-34.10584299
 D9=-119.41731479
 D10=124.17727787
 D11=-24.37754487
 D12=145.92131681
 D13=155.85904309
 D14=4.64261765
 D15=-120.77363066
 D16=121.34466614
 D17=-41.61070029
 D18=-156.30792993
 D19=39.96187936
 D20=-100.37499419
 D21=145.45482575
 Recover connectivity data from disk.

 GradGradGradGradGradGradGradGradGradGradGradGradGradGradGradGradGradGrad
 Berny optimization.
 Initialization pass.
                       ----------------------------
                       !    Initial Parameters    !
                       ! (Angstroms and Degrees)  !
 ----------------------                            ----------------------
 !      Name          Value   Derivative information (Atomic Units)     !
 ------------------------------------------------------------------------
 !       R2          1.0959   calculate D2E/DX2 analytically            !
 !       R3          1.4627   calculate D2E/DX2 analytically            !
 !       R4          1.4418   calculate D2E/DX2 analytically            !
 !       R5          1.0969   calculate D2E/DX2 analytically            !
 !       R6          1.4424   calculate D2E/DX2 analytically            !
 !       R7          1.25     calculate D2E/DX2 analytically            !
 !       R8          1.4962   calculate D2E/DX2 analytically            !
 !       R9          1.0942   calculate D2E/DX2 analytically            !
 !       R10         1.0945   calculate D2E/DX2 analytically            !
 !       R11         1.4829   calculate D2E/DX2 analytically            !
 !       R12         1.3813   calculate D2E/DX2 analytically            !
 !       R13         1.0889   calculate D2E/DX2 analytically            !
 !       R14         1.0923   calculate D2E/DX2 analytically            !
 !       R15         1.0921   calculate D2E/DX2 analytically            !
 !       R16         1.0922   calculate D2E/DX2 analytically            !
 !       R17         1.4055   calculate D2E/DX2 analytically            !
 !       R18         1.0854   calculate D2E/DX2 analytically            !
 !       R19         1.0862   calculate D2E/DX2 analytically            !
 !       R20         1.3454   calculate D2E/DX2 analytically            !
 !       R21         1.0843   calculate D2E/DX2 analytically            !
 !       A3        111.5234   calculate D2E/DX2 analytically            !
 !       A4        106.2028   calculate D2E/DX2 analytically            !
 !       A5        107.9053   calculate D2E/DX2 analytically            !
 !       A6        112.029    calculate D2E/DX2 analytically            !
 !       A7        154.1615   calculate D2E/DX2 analytically            !
 !       A8        109.7422   calculate D2E/DX2 analytically            !
 !       A9        104.5567   calculate D2E/DX2 analytically            !
 !       A10       110.6445   calculate D2E/DX2 analytically            !
 !       A11       147.509    calculate D2E/DX2 analytically            !
 !       A12       129.4885   calculate D2E/DX2 analytically            !
 !       A13       111.4917   calculate D2E/DX2 analytically            !
 !       A14       111.8735   calculate D2E/DX2 analytically            !
 !       A15       110.6022   calculate D2E/DX2 analytically            !
 !       A16       110.7361   calculate D2E/DX2 analytically            !
 !       A17       124.1806   calculate D2E/DX2 analytically            !
 !       A18       115.759    calculate D2E/DX2 analytically            !
 !       A19       119.8133   calculate D2E/DX2 analytically            !
 !       A20        93.6731   calculate D2E/DX2 analytically            !
 !       A21       117.9987   calculate D2E/DX2 analytically            !
 !       D4        120.7293   calculate D2E/DX2 analytically            !
 !       D5       -122.4566   calculate D2E/DX2 analytically            !
 !       D6       -137.1748   calculate D2E/DX2 analytically            !
 !       D7          2.1427   calculate D2E/DX2 analytically            !
 !       D8        -34.1058   calculate D2E/DX2 analytically            !
 !       D9       -119.4173   calculate D2E/DX2 analytically            !
 !       D10       124.1773   calculate D2E/DX2 analytically            !
 !       D11       -24.3775   calculate D2E/DX2 analytically            !
 !       D12       145.9213   calculate D2E/DX2 analytically            !
 !       D13       155.859    calculate D2E/DX2 analytically            !
 !       D14         4.6426   calculate D2E/DX2 analytically            !
 !       D15      -120.7736   calculate D2E/DX2 analytically            !
 !       D16       121.3447   calculate D2E/DX2 analytically            !
 !       D17       -41.6107   calculate D2E/DX2 analytically            !
 !       D18      -156.3079   calculate D2E/DX2 analytically            !
 !       D19        39.9619   calculate D2E/DX2 analytically            !
 !       D20      -100.375    calculate D2E/DX2 analytically            !
 !       D21       145.4548   calculate D2E/DX2 analytically            !
 ------------------------------------------------------------------------
 Trust Radius=1.00D-01 FncErr=1.00D-07 GrdErr=1.00D-07 EigMax=2.50D+02 EigMin=1.00D-04
 Number of steps in this run=      2 maximum allowed number of steps=      2.
 Search for a saddle point of order  1.
 GradGradGradGradGradGradGradGradGradGradGradGradGradGradGradGradGradGrad

                          Input orientation:                          
 ---------------------------------------------------------------------
 Center     Atomic      Atomic             Coordinates (Angstroms)
 Number     Number       Type             X           Y           Z
 ---------------------------------------------------------------------
      1          1           0        0.000000    0.000000    0.000000
      2          6           0        0.000000    0.000000    1.095910
      3          6           0        1.360709    0.000000    1.632550
      4          8           0       -0.707461    1.190113    1.498221
      5          1           0       -0.560133   -0.880704    1.433136
      6          6           0       -0.051810    1.865905    2.590899
      7          6           0        2.607059    0.020369    1.538850
      8          6           0        0.588309    0.860746    3.495624
      9          1           0       -0.854865    2.405239    3.102231
     10          1           0        0.669115    2.598418    2.214654
     11          6           0        3.803891   -0.263379    0.710606
     12          6           0        1.757730    0.954271    4.224805
     13          1           0       -0.141697    0.153441    3.886020
     14          1           0        3.533871   -0.599657   -0.292978
     15          1           0        4.419199   -1.036089    1.176443
     16          1           0        4.433356    0.624977    0.623474
     17          6           0        2.946545    1.526783    3.740621
     18          1           0        1.869678    0.236129    5.030931
     19          1           0        2.904593    2.427575    3.135057
     20          1           0        3.058211    0.649230    2.726952
     21          1           0        3.831084    1.467839    4.365045
 ---------------------------------------------------------------------
                    Distance matrix (angstroms):
                    1          2          3          4          5
     1  H    0.000000
     2  C    1.095910   0.000000
     3  C    2.125265   1.462707   0.000000
     4  O    2.039985   1.441778   2.389925   0.000000
     5  H    1.772926   1.096864   2.122508   2.077072   0.000000
     6  C    3.193281   2.391501   2.528882   1.442400   3.023685
     7  C    3.027413   2.644498   1.250033   3.515110   3.294574
     8  C    3.647791   2.616413   2.192836   2.403564   2.933501
     9  H    4.017438   3.246736   3.585234   2.017699   3.697320
    10  H    3.479107   2.907074   2.751168   2.095605   3.771752
    11  C    3.878649   3.832417   2.624593   4.804714   4.466302
    12  C    4.674315   3.713520   2.790706   3.683347   4.066084
    13  H    3.891629   2.797916   2.712728   2.663900   2.694659
    14  H    3.596341   3.844066   2.964773   4.939693   4.451890
    15  H    4.689010   4.539745   3.261269   5.598407   4.988365
    16  H    4.520394   4.502048   3.293932   5.245242   5.278027
    17  C    5.000544   4.243547   3.047934   4.300403   4.839140
    18  H    5.372311   4.363008   3.444387   4.475687   4.482793
    19  H    4.915116   4.299756   3.245647   4.154212   5.083854
    20  H    4.148545   3.526252   2.121492   3.997828   4.136070
    21  H    5.990440   5.245855   3.965329   5.375333   5.778801
                    6          7          8          9         10
     6  C    0.000000
     7  C    3.403292   0.000000
     8  C    1.496204   2.934374   0.000000
     9  H    1.094185   4.485163   2.150109   0.000000
    10  H    1.094472   3.295251   2.160305   1.774155   0.000000
    11  C    4.789132   1.482871   4.399994   5.877534   4.503207
    12  C    2.602914   2.967808   1.381303   3.192356   2.815850
    13  H    2.148943   3.616985   1.088852   2.488681   3.070635
    14  H    5.220426   2.144529   5.016235   6.310138   4.972196
    15  H    5.514723   2.128683   4.863363   6.585374   5.324533
[...]
 00020701,-0.01521983,-0.01539873,0.01057610,0.00956034,0.01115915,-0.0
 0477159,0.11822957,0.17086968,-0.00021294,0.00010105,-0.00004633,-0.00
 352930,0.00178671,0.00179485,0.00226138,-0.00129511,-0.00059368,-0.023
 03161,-0.02534293,0.00194255,0.00055003,-0.00094016,-0.00022364,0.0651
 4201,0.06457797,-0.08625693,-0.00128709,-0.00049299,-0.00010741,0.0158
 0344,0.01338405,-0.00567771,0.00984783,0.00973268,-0.00394578,-0.06238
 087,-0.06381846,0.09298607,0.00046652,-0.00007532,-0.00072325,0.002727
 17,0.00012409,0.00197034,-0.02840127,0.00483582,0.01889122,-0.00064690
 ,0.00073007,0.00055203,-0.00068704,0.00016205,-0.00022871,-0.00067120,
 0.00073347,-0.00041629,-0.16238067,0.02570495,0.07591225,-0.00135188,-
 0.00390486,-0.00946147,-0.00006835,0.00006381,-0.00004868,-0.00000604,
 -0.00003834,0.00013441,0.49511650,-0.00010737,-0.00000102,0.00049276,0
 .00081071,0.00107945,0.00011870,-0.01036214,0.00603685,-0.00208479,-0.
 00175353,0.00164524,0.00010581,0.00038994,0.00006234,0.00061752,-0.000
 54372,0.00053671,0.00027408,0.03458470,-0.07192295,-0.01206637,-0.0006
 5419,0.00217489,-0.00430262,-0.00046369,0.00008345,-0.00021842,-0.0000
 6195,0.00000943,0.00026496,0.01350783,0.53091608,0.00011709,0.00017683
 ,-0.00002257,-0.00068360,-0.00115410,0.00178768,-0.01878024,-0.0014686
 7,0.00401284,-0.00010233,0.00026543,0.00041834,-0.00087569,0.00012900,
 -0.00041487,-0.00038597,0.00055404,-0.00007761,0.09638970,-0.01083856,
 -0.09973835,-0.00318696,-0.00455428,-0.00956781,-0.00012120,0.00012727
 ,-0.00000629,0.00004988,-0.00017244,0.00012158,0.03291967,-0.00011593,
 0.52397644,0.00186565,-0.00064034,0.00062533,-0.00074954,0.00427229,0.
 00905459,0.05007945,-0.01468486,-0.04338571,0.00025932,0.00279628,0.00
 319414,-0.00042469,-0.00001631,0.00006216,-0.00454829,-0.00157835,-0.0
 2202581,-0.06499032,-0.02184001,-0.03188635,-0.30169088,-0.02070312,-0
 .09075963,0.00325932,-0.00247396,0.00311636,-0.00013682,-0.00025560,-0
 .00007286,0.00800617,0.00411399,0.01256084,0.64326798,0.00032835,0.000
 41320,-0.00001269,0.00146212,-0.00162300,0.00317995,0.01560913,-0.0059
 6342,-0.02290745,0.00140124,0.00058046,0.00466965,-0.00049375,0.000273
 82,0.00002903,0.01814608,0.00641661,0.00497528,-0.01504392,-0.00452846
 ,-0.01546614,-0.01547024,-0.08017079,0.03996928,0.00157023,-0.00177535
 ,0.00188746,-0.00078730,0.00034574,-0.00105687,0.00015178,0.00064938,0
 .00115333,0.10165277,0.37704701,0.00136408,-0.00023869,0.00028200,-0.0
 0182223,0.00363751,0.00511423,0.01669720,-0.00874738,-0.02632507,-0.00
 489484,-0.00055796,-0.00549868,-0.00078591,-0.00018598,-0.00006861,-0.
 00834754,-0.00596458,-0.01006565,-0.00612554,-0.00297943,-0.00527384,-
 0.15010864,0.02159490,-0.14608920,0.00043655,-0.00011960,0.00051157,0.
 00030713,-0.00052589,0.00037621,-0.00136582,-0.00087827,-0.00258894,0.
 08952653,-0.21573890,0.49864243,0.00023027,0.00024882,-0.00005724,-0.0
 0049520,-0.00051380,0.00006183,-0.00072717,-0.00101940,-0.00032870,0.0
 0045811,-0.00016924,0.00149240,0.00056661,0.00020679,-0.00019430,0.008
 53511,0.00964696,-0.00631558,-0.00084122,-0.00009332,0.00031991,-0.168
 69754,-0.11843612,0.05858078,0.00118296,-0.00053281,0.00053284,-0.0002
 8760,0.00160882,-0.00261924,0.00013988,0.00020468,-0.00001235,-0.01984
 502,-0.01759352,0.01097363,0.18304883,0.00005708,-0.00013518,0.0001672
 1,0.00035649,-0.00026219,0.00012709,0.00197079,0.00319319,-0.00065782,
 0.00088603,0.00236111,-0.00025350,-0.00021608,0.00038188,-0.00014384,-
 0.01698322,-0.01760427,0.00945365,0.00076165,0.00010479,-0.00032008,-0
 .11603438,-0.15725911,0.06768230,-0.00030158,0.00064775,-0.00088823,0.
 00252730,-0.00188344,0.00326054,0.00007980,-0.00043561,0.00017119,-0.0
 0307115,-0.00070131,0.00357875,0.12731317,0.16839247,-0.00013890,-0.00
 041453,0.00020316,0.00081955,0.00013012,-0.00087049,0.00148698,0.00380
 188,0.00033872,0.00001519,-0.00103941,0.00239314,-0.00039030,-0.000401
 02,-0.00056610,0.01302671,0.01460263,-0.00772263,0.00167985,0.00030115
 ,-0.00022354,0.06397222,0.07196701,-0.08252552,-0.00073022,-0.00030929
 ,0.00060473,-0.00231938,0.00285718,-0.00120014,-0.00007014,-0.00049113
 ,0.00003988,-0.01647254,-0.01116114,0.00934951,-0.05907154,-0.07952331
 ,0.08210518,-0.00030725,0.00001375,-0.00040231,0.00046814,0.00019163,0
 .00016637,0.00518454,-0.00027453,-0.00108573,-0.00008224,-0.00014039,-
 0.00038404,0.00006714,-0.00003794,-0.00004885,0.00031126,-0.00036177,0
 .00010717,0.00009632,0.00840540,0.02534154,0.00084756,0.00112653,0.003
 06417,0.00001109,-0.00002852,-0.00000725,0.00000454,0.00003850,-0.0000
 4976,-0.06408184,-0.02168857,-0.06347075,-0.00331819,0.00016736,0.0010
 8228,-0.00005064,-0.00000352,0.00004066,0.07067490,0.00008309,-0.00000
 533,-0.00006871,0.00003123,-0.00006616,-0.00040716,-0.00150926,-0.0001
 0184,0.00143041,0.00024685,-0.00009562,0.00016032,-0.00005480,0.000010
 76,0.00004075,-0.00005638,0.00010904,-0.00004882,0.00130680,-0.0016573
 0,-0.00575180,-0.00021758,-0.00027008,-0.00104996,0.00000571,-0.000007
 04,0.00001486,-0.00001827,-0.00001144,-0.00000018,-0.02238576,-0.07150
 922,-0.07139380,0.00112461,0.00009060,-0.00009990,0.00004953,-0.000026
 54,-0.00005529,0.02219154,0.07151948,0.00036611,-0.00006541,-0.0000656
 1,0.00055513,-0.00027499,-0.00016486,-0.00449471,0.00088167,0.00275224
 ,0.00025188,0.00005083,0.00036562,0.00012193,0.00008285,-0.00003675,-0
 .00028070,0.00031259,-0.00015951,0.00416013,-0.00568516,-0.01554921,-0
 .00071103,-0.00091846,-0.00259284,0.00003064,-0.00000317,0.00002354,-0
 .00001105,-0.00004547,0.00003506,-0.06588837,-0.07118638,-0.26154385,0
 .00271604,-0.00008110,-0.00036275,0.00008455,-0.00004001,-0.00008015,0
 .06670902,0.08080445,0.28564459,0.00002363,0.00004414,-0.00015040,-0.0
 0024623,-0.00053892,0.00033548,-0.00004883,0.00024548,0.00203901,0.000
 20216,-0.00010330,-0.00003183,-0.00025414,0.00003331,-0.00015201,0.000
 03237,-0.00004040,-0.00000580,-0.02196669,0.01978165,-0.00572045,-0.00
 022106,-0.00087636,-0.00066946,0.00001492,0.00002171,0.00001716,0.0000
 0800,-0.00001749,-0.00000620,-0.12197844,0.10451342,-0.06599743,0.0008
 4652,0.00042347,0.00006146,-0.00005343,0.00009761,0.00007691,-0.004820
 98,0.00546633,-0.00426169,0.13778141,-0.00002218,-0.00001528,-0.000066
 66,0.00016709,0.00019346,-0.00019933,-0.00116394,-0.00013080,0.0006273
 8,0.00009951,-0.00011955,-0.00002026,0.00007478,-0.00007463,0.00002272
 ,-0.00001362,0.00003405,0.00010717,0.00418207,-0.00236662,-0.00085753,
 0.00003930,0.00008241,-0.00001541,0.00000996,-0.00000435,-0.00001405,-
 0.00000817,0.00000766,-0.00000208,0.10414599,-0.17644548,0.08132595,-0
 .00007099,0.00006842,0.00011820,-0.00000419,-0.00001479,-0.00002036,-0
 .00697948,0.00834370,-0.00448985,-0.11505851,0.19044759,-0.00001444,0.
 00001734,0.00001455,-0.00004043,0.00065549,-0.00071861,0.00205196,0.00
 053499,-0.00044984,0.00006314,-0.00015620,-0.00006043,0.00045794,-0.00
 007645,0.00013647,-0.00000095,0.00007392,0.00021553,0.01156201,-0.0171
 4695,0.00787518,0.00017471,0.00054783,0.00042489,0.00001545,-0.0000073
 3,-0.00003140,-0.00001071,0.00001921,-0.00002761,-0.06377169,0.0810318
 0,-0.09716509,-0.00045536,0.00005487,0.00016792,0.00002683,-0.00006321
 ,-0.00006004,-0.01537405,0.02105459,-0.01258332,0.06630569,-0.08816294
 ,0.10332097,-0.00001020,-0.00001913,-0.00002442,0.00051389,0.00010863,
 0.00050352,-0.00164655,0.00096413,0.00128013,-0.00047779,0.00056635,0.
 00001366,0.00001731,0.00002607,0.00004825,-0.00024997,-0.00009926,0.00
 003758,-0.02088496,-0.01946393,0.00614929,-0.00005580,0.00019583,-0.00
 107759,-0.00010609,0.00006054,-0.00005942,0.00001004,0.00004760,0.0000
 7047,-0.12542323,-0.12369871,0.01039950,0.00076710,0.00027105,0.000067
 90,0.00001073,-0.00003386,-0.00006196,-0.00495816,-0.00650921,0.000059
 25,0.01112286,0.01447856,-0.00112899,0.14165701,0.00003148,-0.00000698
 ,0.00001534,-0.00012680,-0.00033815,-0.00000322,0.00244990,-0.00033893
 ,-0.00023226,0.00019217,-0.00012486,0.00000650,-0.00002687,-0.00000844
 ,-0.00003556,0.00001207,0.00005236,0.00004489,0.00362486,0.00905248,-0
 .00092293,0.00002417,0.00001313,0.00018308,-0.00001492,-0.00000495,-0.
 00000037,0.00000168,-0.00003427,-0.00000066,-0.12254029,-0.22092754,0.
 01424034,-0.00013423,-0.00000647,0.00003985,-0.00001410,0.00000935,0.0
 0002444,-0.00357210,-0.00712764,0.00059803,-0.01328430,-0.01987878,0.0
 0138860,0.13326552,0.23902537,-0.00001434,0.00002270,0.00005906,-0.000
 37046,-0.00072084,-0.00036199,0.00214419,0.00031706,0.00026117,0.00049
 349,-0.00036604,-0.00008488,0.00016042,-0.00004787,-0.00004208,0.00006
 338,0.00012192,0.00027366,0.01035883,0.01537583,-0.00411223,0.00000893
 ,-0.00014660,0.00032293,0.00005019,-0.00000951,-0.00001450,0.00000605,
 -0.00001865,-0.00003038,0.01153671,0.01365203,-0.04845158,-0.00020313,
 0.00003374,0.00030993,-0.00004603,0.00001571,0.00003275,-0.01660969,-0
 .02445393,0.00358966,0.00819222,0.01202768,-0.00156666,-0.01597746,-0.
 01592770,0.04960534,-0.00230172,0.00061132,-0.00078201,0.00394308,-0.0
 0448784,-0.00705899,-0.03929359,0.00443050,0.02055641,0.00132947,0.000
 43712,0.00060342,0.00052823,-0.00000529,-0.00004114,-0.00067766,0.0013
 5685,0.00622692,0.03352372,0.01603946,0.03018137,-0.04099232,-0.024161
 72,-0.02830646,-0.00134254,0.00073931,-0.00095980,-0.00035887,-0.00018
 545,0.00013545,-0.00162337,-0.00140784,-0.00492769,-0.24328268,-0.0955
 7974,0.06859954,-0.00198143,-0.00026852,-0.00300999,0.00074810,-0.0001
 9412,-0.00059468,-0.00042669,0.00002563,-0.00003783,-0.00013044,-0.000
 03852,-0.00038606,0.60794247,0.00020828,-0.00008417,0.00047365,-0.0015
 1698,0.00260577,0.00005766,0.01923675,-0.00022538,-0.00228025,-0.00024
 666,-0.00055434,-0.00009096,0.00015237,-0.00016285,0.00004704,0.001359
 29,0.00073037,-0.00423420,-0.03168851,-0.02136113,-0.03728376,-0.00245
 868,0.00576014,0.00365673,0.00009476,-0.00089663,0.00077104,-0.0003440
 3,-0.00052418,0.00026573,0.00258218,0.00261807,0.00793978,-0.10936352,
 -0.12876351,0.06796962,-0.00158340,0.00378365,0.00331085,-0.00130627,0
 .00061303,0.00083140,0.00039883,-0.00022270,-0.00031583,0.00056577,0.0
 0014003,-0.00046769,0.11370006,0.43743769,0.00127555,-0.00037004,0.000
 85756,-0.00069806,0.00224387,0.00626540,0.04385806,-0.00906718,-0.0257
 4770,-0.00181209,0.00171950,0.00046771,-0.00034613,-0.00008842,-0.0000
 7719,0.00089445,-0.00416090,-0.00789548,-0.06489415,-0.03958361,-0.067
 36978,0.00236304,0.00078289,0.04660267,0.00160285,-0.00124445,0.001729
 31,0.00021876,0.00026100,-0.00033407,0.00502394,0.00515089,0.01328134,
 0.01384839,0.05360811,-0.10737127,-0.00538549,-0.00003224,0.00027897,-
 0.00230562,0.00092351,0.00156732,0.00106424,-0.00023658,-0.00072243,0.
 00126254,0.00011563,-0.00055539,0.11633130,-0.21915595,0.37376488,0.00
 012692,-0.00010078,-0.00000877,-0.00069378,0.00078763,0.00034054,0.000
 56509,-0.00011057,-0.00013545,-0.00137933,0.00001525,-0.00241525,-0.00
 005404,-0.00010307,-0.00002780,-0.00055678,-0.00416158,-0.00298384,-0.
 00063008,-0.00037889,-0.00048677,-0.00496597,0.02007421,-0.02181304,0.
 00004418,-0.00008001,0.00033834,0.00017045,0.00023521,-0.00003645,0.00
 003204,0.00007741,0.00010064,-0.05731946,0.01605115,-0.02367167,-0.000
 13282,0.00188092,0.00117044,-0.00001270,0.00003116,-0.00001326,-0.0000
 0190,0.00001516,0.00001042,0.00006313,0.00000792,-0.00003943,0.0034849
 9,-0.02204417,0.01931364,0.06360770,0.00001959,0.00000169,0.00001807,0
 .00025056,-0.00023929,0.00028028,0.00097248,-0.00043339,-0.00092915,0.
 00064123,-0.00025883,0.00109094,0.00006572,0.00001283,-0.00000393,-0.0
 0232830,0.00393914,0.00260108,-0.00052627,-0.00012531,-0.00033492,-0.0
 0227584,0.00422772,0.00002165,-0.00015560,0.00051213,-0.00053298,-0.00
 015793,-0.00000910,-0.00019653,0.00009597,-0.00005400,-0.00004905,0.01
 437130,-0.16878828,0.14597799,0.00156884,-0.00131271,-0.00337275,-0.00
 002045,-0.00001369,0.00004198,0.00000438,0.00001787,-0.00000031,0.0000
 1735,-0.00004328,-0.00000958,0.00124786,-0.00720243,0.01068573,-0.0115
 5778,0.16823478,-0.00003676,-0.00001287,-0.00003842,0.00010242,0.00013
 915,0.00020068,0.00006539,-0.00036657,-0.00026500,0.00004553,-0.000153
 19,-0.00000551,0.00010500,-0.00005233,-0.00002092,-0.00241035,0.000549
 24,0.00331519,-0.00018475,0.00002570,-0.00001237,-0.00364239,0.0135874
 6,-0.00878358,-0.00027018,0.00062423,-0.00051119,0.00007650,-0.0001565
 0,-0.00002122,0.00018714,0.00003484,0.00003881,-0.02402654,0.13752831,
 -0.19770344,0.00137873,-0.00276413,-0.00143889,-0.00007886,-0.00002052
 ,0.00007079,0.00002601,0.00000556,-0.00004186,-0.00001682,-0.00003982,
 0.00000792,-0.00059602,0.00951100,-0.00493877,0.02767487,-0.15790415,0
 .20725115,0.00006038,-0.00000478,0.00006151,0.00025669,-0.00014078,0.0
 0015026,0.00073692,-0.00032260,-0.00055920,0.00017975,0.00055141,0.000
 19703,-0.00006519,0.00004765,0.00001828,-0.00083908,-0.00027061,-0.000
 40947,-0.00078927,-0.00110964,-0.00114117,0.00059799,0.00152661,0.0009
 6024,-0.00000439,0.00000437,-0.00009254,-0.00087936,0.00032444,-0.0006
 6960,0.00006965,0.00018042,0.00001473,0.00587583,-0.02413343,0.0163271
 7,-0.00018329,0.00068326,0.00036673,-0.00000846,-0.00006216,0.00000189
 ,0.00001074,-0.00003146,-0.00001951,-0.00006500,0.00000302,0.00010679,
 -0.05331759,0.00995981,-0.01543218,-0.00373165,-0.00329765,0.00056997,
 0.05030618,-0.00041194,0.00012044,-0.00014920,0.00029268,-0.00047088,-
 0.00125259,-0.00481692,0.00122975,0.00221894,0.00023920,0.00017115,0.0
 0006076,0.00009411,0.00002035,0.00002143,-0.00034524,-0.00111586,0.000
 96803,0.00548748,0.00301070,0.00462163,-0.00029937,-0.00158921,-0.0042
 2800,0.00005931,0.00032064,-0.00034155,0.00043528,0.00088306,-0.000153
 62,-0.00054468,-0.00070331,-0.00115380,0.00759168,-0.00463871,0.004009
 06,-0.00014535,0.00016752,-0.00008721,0.00027259,-0.00005807,-0.000159
 87,-0.00002808,0.00005068,0.00008626,0.00009444,-0.00009653,-0.0001276
 9,0.00301661,-0.23013904,0.14214398,-0.00193785,0.00287443,0.00171279,
 -0.00861535,0.24758039,-0.00039552,0.00011026,-0.00017276,0.00049811,0
 .00010421,-0.00145695,-0.00497483,0.00096309,0.00279633,0.00020858,-0.
 00025524,0.00012241,0.00007334,-0.00000369,0.00002373,-0.00041983,0.00
 090789,0.00104718,0.00592793,0.00135213,0.00571275,-0.00092919,-0.0039
 2204,-0.00554638,-0.00040999,0.00004323,-0.00018390,-0.00077820,-0.000
 35511,0.00045532,-0.00062284,-0.00057468,-0.00090360,0.00635282,0.0131
 5435,-0.00855501,0.00019355,-0.00002109,-0.00004542,0.00026110,0.00002
 070,-0.00018248,-0.00008996,0.00002721,0.00006538,0.00009632,0.0000424
 3,-0.00008341,-0.01732839,0.13215542,-0.11958379,0.00199100,0.00401214
 ,0.00294959,0.01038253,-0.14470802,0.13513080,-0.00006142,0.00011879,-
 0.00032470,-0.00168929,-0.00113777,-0.00113638,-0.02240640,-0.00273246
 ,-0.00422223,0.00062619,-0.00110769,-0.00092562,0.00003731,-0.00004197
 ,0.00007000,-0.00042616,0.00098182,0.00381037,-0.00895236,0.00453600,0
 .00670892,-0.00741000,-0.00416756,-0.00879293,-0.00060175,0.00058541,-
 0.00094833,-0.00003021,0.00040133,-0.00002865,0.00086944,0.00237987,0.
 00603426,0.00220330,0.01012502,0.00995054,0.00024447,0.00040022,0.0002
 0705,-0.00080260,0.00048656,0.00123254,-0.00001860,0.00009253,0.000154
 34,-0.00015891,0.00013176,0.00046465,-0.03167151,0.01201491,0.01772564
 ,0.00051709,-0.00034387,-0.00016638,0.00035180,-0.00029901,-0.00088658
 ,0.06693708,-0.00198978,0.00060468,-0.00115723,0.00405976,-0.00047782,
 -0.00640282,-0.05082717,0.00564619,0.01475444,0.00072209,-0.00061094,0
 .00015030,0.00127558,-0.00007718,-0.00017298,-0.00111152,0.00151943,0.
 00385790,0.04840902,0.00052565,0.04338769,-0.00865999,-0.01003458,-0.0
 2991778,-0.00048031,0.00065412,-0.00074872,0.00034476,-0.00020149,0.00
 019699,-0.00333470,-0.00380130,-0.01492457,0.04356193,0.00965224,-0.00
 321775,-0.00018843,0.00028368,-0.00015391,0.00190794,0.00028053,-0.000
 63390,-0.00113787,0.00011172,0.00059176,-0.00092290,0.00064144,0.00086
 461,-0.02332154,-0.01696899,0.03591040,0.00075612,0.00012533,0.0002701
 3,0.00404683,-0.01813444,-0.01746468,-0.01321518,0.03137335,-0.0024909
 2,0.00072376,-0.00121195,0.00451398,-0.00802110,-0.00826389,-0.0697674
 4,0.00293723,0.01985900,0.00200052,0.00021728,0.00086481,0.00038104,0.
 00006338,-0.00008914,-0.00141566,0.00215016,0.00414883,0.06308256,0.03
 333274,0.03163704,-0.00982056,-0.01090881,-0.04235907,-0.00102869,0.00
 064860,-0.00077636,-0.00005045,-0.00016595,0.00070693,-0.00445984,-0.0
 0986618,-0.02323935,0.07161773,0.00655179,-0.01624793,-0.00031770,-0.0
 0005893,-0.00087335,0.00296817,-0.00113019,-0.00075704,-0.00107495,-0.
 00003833,0.00133603,-0.00168592,0.00037021,0.00104291,-0.03576636,0.01
 789697,0.03062034,0.00035357,0.00106513,0.00090442,0.00055453,-0.00256
 697,-0.00380500,-0.02010375,-0.02606363,0.01338030,0.00017316,-0.00004
 243,0.00004880,-0.00057354,0.00048943,0.00031157,0.00178112,0.00040932
 ,0.00033339,-0.00000109,-0.00018788,-0.00035285,-0.00000579,0.00002326
 ,0.00001308,0.00040557,-0.00032350,0.00026072,-0.00051074,-0.00100720,
 -0.00135623,-0.00173448,-0.00336647,0.00334435,-0.00000756,-0.00003651
 ,0.00001686,0.00004628,0.00005634,-0.00002046,-0.00010716,-0.00002126,
 -0.00004210,-0.02012477,0.00174215,-0.01827182,-0.00112160,-0.00010202
 ,-0.00059732,0.00002947,-0.00001587,-0.00003361,-0.00000563,0.00002196
 ,0.00003149,0.00000501,0.00000758,0.00006075,-0.23409964,0.01027921,-0
 .13390867,0.00086692,0.00140843,0.00119748,0.00143734,-0.00013958,0.00
 085004,0.00244252,0.00010535,0.00251015,0.25110460,-0.00048572,0.00007
 309,-0.00015109,0.00122113,-0.00103489,-0.00083867,-0.00458085,0.00013
 344,0.00106771,0.00014849,0.00080837,0.00035900,0.00004416,-0.00002793
 ,-0.00000794,-0.00089808,-0.00081454,0.00036024,0.00230212,0.00128525,
 0.00249737,-0.00351106,0.00152787,-0.00058064,0.,0.00026041,-0.0001932
 2,0.00008154,0.00039055,-0.00027108,-0.00009385,-0.00001148,-0.0002579
 7,-0.00465240,0.00142181,-0.00767156,-0.00055391,0.00030977,0.00003407
 ,0.00009830,-0.00001718,-0.00002000,0.00005491,-0.00008457,-0.00012744
 ,0.00008515,0.00000266,-0.00013520,0.00804589,-0.04658339,0.02039387,0
 .00054257,-0.00146559,-0.00251833,0.02066064,0.00051692,0.01441150,-0.
 00920871,-0.00111161,-0.00713718,-0.00930031,0.04442104,-0.00031267,0.
 00003109,-0.00010125,0.00091179,-0.00057655,-0.00037830,-0.00246827,-0
 .00042902,0.00011527,-0.00012191,0.00025063,0.00015765,0.00003621,-0.0
 0006383,-0.00001449,-0.00009009,0.00014171,-0.00021228,0.00070961,0.00
 024342,0.00116531,0.00102110,0.00330341,-0.00111281,-0.00001011,0.0000
 2584,0.00002866,0.00002338,-0.00011859,0.00004632,-0.00007062,0.000041
 39,0.00004299,0.01661299,-0.00037086,0.01139660,0.00070309,0.00030995,
 0.00026020,0.00007645,0.00003067,0.00002956,0.00004199,-0.00013850,-0.
 00012964,0.00004417,0.00009318,-0.00020224,-0.14283899,0.01894177,-0.1
 4083963,0.00033828,-0.00246164,-0.00095738,-0.01138799,-0.00091436,-0.
 00778479,-0.00882278,0.00087375,-0.00687754,0.14560437,-0.01921346,0.1
 4536776\\-0.00158787,0.00042948,0.00000282,0.00159472,-0.00064559,-0.0
 0000358,-0.00001487,0.00022509,-0.00000353,0.00000355,-0.00000792,0.00
 001050,-0.00000050,0.00000087,0.00000299,-0.00000481,-0.00000329,-0.00
 000844,-0.00000022,0.00000373,0.00000808,0.00000291,-0.00000163,-0.000
 01273,0.00000033,0.00000002,-0.00000061,-0.00000037,-0.00000054,0.0000
 0075,-0.00000128,0.00000390,0.00000311,0.00001168,0.00000662,0.0000024
 2,0.00000033,-0.00000101,-0.00000158,-0.00000128,0.00000062,0.00000161
 ,0.,0.00000082,0.00000068,0.00000124,-0.00000093,-0.00000056,-0.000009
 35,-0.00000150,0.00000776,0.00000049,-0.00000018,-0.00000058,0.0000020
 7,-0.00000070,0.00000160,0.00000380,-0.00001031,-0.00001000,-0.0000005
 7,0.00000247,-0.00000073\\\@


 SIC AS THE CAWSE OF EWERY THING IS, SIC WILBE THE EFFECT.
 -- PROVERBS AND REASONS OF THE YEAR 1585
           AS REPRINTED IN PAISLEY MAGAZINE 1828.
 Job cpu time:       0 days  2 hours 35 minutes 10.7 seconds.
 Elapsed time:       0 days  0 hours 12 minutes 56.8 seconds.
 File lengths (MBytes):  RWF=    204 Int=      0 D2E=      0 Chk=     32 Scr=      1
 Normal termination of Gaussian 16 at Sat Jun 11 00:56:21 2022.
