 Entering Gaussian System, Link 0=g16
 Input=ts_initalOpt_zmat_sp.gjf
 Output=ts_initalOpt_zmat_sp.out
 Initial command:
 /software/gaussian/g16-a03/l1.exe "/local_scratch/11174421/Gau-18131.inp" -scrdir="/local_scratch/11174421/"
 Entering Link 1 = /software/gaussian/g16-a03/l1.exe PID=     18132.
  
 Copyright (c) 1988,1990,1992,1993,1995,1998,2003,2009,2016,
            Gaussian, Inc.  All Rights Reserved.
  
 This is part of the Gaussian(R) 16 program.  It is based on
 the Gaussian(R) 09 system (copyright 2009, Gaussian, Inc.),
 the Gaussian(R) 03 system (copyright 2003, Gaussian, Inc.),
 the Gaussian(R) 98 system (copyright 1998, Gaussian, Inc.),
 the Gaussian(R) 94 system (copyright 1995, Gaussian, Inc.),
 the Gaussian 92(TM) system (copyright 1992, Gaussian, Inc.),
 the Gaussian 90(TM) system (copyright 1990, Gaussian, Inc.),
 the Gaussian 88(TM) system (copyright 1988, Gaussian, Inc.),
 the Gaussian 86(TM) system (copyright 1986, Carnegie Mellon
 University), and the Gaussian 82(TM) system (copyright 1983,
 Carnegie Mellon University). Gaussian is a federally registered
 trademark of Gaussian, Inc.
  
 This software contains proprietary and confidential information,
 including trade secrets, belonging to Gaussian, Inc.
  
 This software is provided under written license and may be
 used, copied, transmitted, or stored only in accord with that
 written license.
  
 The following legend is applicable only to US Government
 contracts under FAR:
  
                    RESTRICTED RIGHTS LEGEND
  
 Use, reproduction and disclosure by the US Government is
 subject to restrictions as set forth in subparagraphs (a)
 and (c) of the Commercial Computer Software - Restricted
 Rights clause in FAR 52.227-19.
  
 Gaussian, Inc.
 340 Quinnipiac St., Bldg. 40, Wallingford CT 06492
  
  
 ---------------------------------------------------------------
 Warning -- This program may not be used in any manner that
 competes with the business of Gaussian, Inc. or will provide
 assistance to any competitor of Gaussian, Inc.  The licensee
 of this program is prohibited from giving any competitor of
 Gaussian, Inc. access to this program.  By using this program,
 the user acknowledges that Gaussian, Inc. is engaged in the
 business of creating and licensing software in the field of
 computational chemistry and represents and warrants to the
 licensee that it is not a competitor of Gaussian, Inc. and that
 it will not use this program in any manner prohibited above.
 ---------------------------------------------------------------
  

 Cite this work as:
 Gaussian 16, Revision A.03,
 M. J. Frisch, G. W. Trucks, H. B. Schlegel, G. E. Scuseria, 
 M. A. Robb, J. R. Cheeseman, G. Scalmani, V. Barone, 
 G. A. Petersson, H. Nakatsuji, X. Li, M. Caricato, A. V. Marenich, 
 J. Bloino, B. G. Janesko, R. Gomperts, B. Mennucci, H. P. Hratchian, 
 J. V. Ortiz, A. F. Izmaylov, J. L. Sonnenberg, D. Williams-Young, 
 F. Ding, F. Lipparini, F. Egidi, J. Goings, B. Peng, A. Petrone, 
 T. Henderson, D. Ranasinghe, V. G. Zakrzewski, J. Gao, N. Rega, 
 G. Zheng, W. Liang, M. Hada, M. Ehara, K. Toyota, R. Fukuda, 
 J. Hasegawa, M. Ishida, T. Nakajima, Y. Honda, O. Kitao, H. Nakai, 
 T. Vreven, K. Throssell, J. A. Montgomery, Jr., J. E. Peralta, 
 F. Ogliaro, M. J. Bearpark, J. J. Heyd, E. N. Brothers, K. N. Kudin, 
 V. N. Staroverov, T. A. Keith, R. Kobayashi, J. Normand, 
 K. Raghavachari, A. P. Rendell, J. C. Burant, S. S. Iyengar, 
 J. Tomasi, M. Cossi, J. M. Millam, M. Klene, C. Adamo, R. Cammi, 
 J. W. Ochterski, R. L. Martin, K. Morokuma, O. Farkas, 
 J. B. Foresman, and D. J. Fox, Gaussian, Inc., Wallingford CT, 2016.
 
 ******************************************
 Gaussian 16:  ES64L-G16RevA.03 25-Dec-2016
                10-Jun-2022 
 ******************************************
 %nprocshared=12
 Will use up to   12 processors via shared memory.
 %chk=checkpoint.chk
 %mem=12GB
 --------------------------
 # sp B3LYP/Def2TZVP NoSymm
 --------------------------
 1/38=1,172=1/1;
 2/12=2,15=1,17=6,18=5,40=1/2;
 3/5=44,7=101,11=2,25=1,30=1,74=-5/1,2,3;
 4//1;
 5/5=2,38=5/2;
 6/7=2,8=2,9=2,10=2,28=1/1;
 99/5=1,9=1/99;
 ---------------------------
 ts_initalOpt_zmat_AlignedSp
 ---------------------------
 Symbolic Z-matrix:
 Charge =  0 Multiplicity = 1
 H
 C                    1    R2
 C                    2    R3       1    A3
 C                    2    R4       1    A4       3    D4       0
 H                    3    R5       2    A5       1    D5       0
 O                    3    R6       2    A6       5    D6       0
 C                    4    R7       2    A7       1    D7       0
 H                    4    R8       2    A8       7    D8       0
 C                    7    R9       4    A9       2    D9       0
 H                    7    R10      4    A10      9    D10      0
 H                    9    R11      7    A11      4    D11      0
 H                    9    R12      7    A12      11   D12      0
       Variables:
  R2                    1.08157                  
  R3                    1.41318                  
  R4                    1.39888                  
  R5                    1.09689                  
  R6                    1.25677                  
  R7                    1.38897                  
  R8                    1.08604                  
  R9                    1.39155                  
  R10                   1.08301                  
  R11                   1.08254                  
  R12                   1.08113                  
  A3                  116.39101                  
  A4                  119.66859                  
  A5                  115.63488                  
  A6                  128.07093                  
  A7                  120.8886                   
  A8                  118.16898                  
  A9                  117.32015                  
  A10                 120.74978                  
  A11                 120.84504                  
  A12                 118.50256                  
  D4                  154.83104                  
  D5                   12.05147                  
  D6                  171.43426                  
  D7                 -176.82555                  
  D8                  168.94192                  
  D9                  -21.18962                  
  D10                 169.69548                  
  D11                 163.18628                  
  D12                 152.61335                  
 
                          Input orientation:                          
 ---------------------------------------------------------------------
 Center     Atomic      Atomic             Coordinates (Angstroms)
 Number     Number       Type             X           Y           Z
 ---------------------------------------------------------------------
      1          1           0        0.000000    0.000000    0.000000
      2          6           0        0.000000    0.000000    1.081565
      3          6           0        1.265899    0.000000    1.709715
      4          6           0       -1.100092    0.516936    1.773988
      5          1           0        2.120875    0.206477    1.054318
      6          8           0        1.521138   -0.060155    2.938823
      7          6           0       -1.099605    0.589638    3.161057
      8          1           0       -1.872284    1.024887    1.203725
      9          6           0       -0.221465   -0.246257    3.844106
     10          1           0       -1.632443    1.380580    3.674278
     11          1           0        0.028407   -0.060530    4.880909
     12          1           0       -0.140505   -1.277346    3.529251
 ---------------------------------------------------------------------
                    Distance matrix (angstroms):
                    1          2          3          4          5
     1  H    0.000000
     2  C    1.081565   0.000000
     3  C    2.127352   1.413178   0.000000
     4  C    2.150455   1.398883   2.422656   0.000000
     5  H    2.377463   2.131076   1.096888   3.314956   0.000000
     6  O    3.309707   2.401434   1.256770   2.925871   1.995529
     7  C    3.398395   2.425096   2.837195   1.388974   3.867383
     8  H    2.450468   2.137934   3.339851   1.086045   4.078901
     9  C    3.858347   2.782323   2.613144   2.374835   3.670756
    10  H    4.251022   3.360511   3.763761   2.154155   4.725474
    11  H    4.881367   3.799932   3.404632   3.355583   4.369498
    12  H    3.755924   2.764511   2.630645   2.687229   3.666178
                    6          7          8          9         10
     6  O    0.000000
     7  C    2.709227   0.000000
     8  H    3.962725   2.148866   0.000000
     9  C    1.972521   1.391548   3.363424   0.000000
    10  H    3.544247   1.083006   2.507523   2.160162   0.000000
    11  H    2.449479   2.157085   4.279303   1.082539   2.508223
    12  H    2.142713   2.130978   3.702351   1.081125   3.051472
                   11         12
    11  H    0.000000
    12  H    1.826514   0.000000
 Symmetry turned off by external request.
 Stoichiometry    C5H6O
 Framework group  C1[X(C5H6O)]
 Deg. of freedom    30
 Full point group                 C1      NOp   1
 Rotational constants (GHZ):           5.5367278           4.6725769           2.7070362
 Standard basis: def2TZVP (5D, 7F)
   222 basis functions,   354 primitive gaussians,   252 cartesian basis functions
    22 alpha electrons       22 beta electrons
       nuclear repulsion energy       217.8751587702 Hartrees.
 NAtoms=   12 NActive=   12 NUniq=   12 SFac= 1.00D+00 NAtFMM=   60 NAOKFM=F Big=F
 Integral buffers will be    131072 words long.
 Raffenetti 2 integral format.
 Two-electron integral symmetry is turned off.
 One-electron integrals computed using PRISM.
   1 Symmetry operations used in ECPInt.
 ECPInt:  NShTT=    4095 NPrTT=   12396 LenC2=    4075 LenP2D=   10363.
 LDataN:  DoStor=T MaxTD1= 6 Len=  172
 NBasis=   222 RedAO= T EigKep=  1.17D-04  NBF=   222
 NBsUse=   222 1.00D-06 EigRej= -1.00D+00 NBFU=   222
 ExpMin= 9.52D-02 ExpMax= 2.70D+04 ExpMxC= 9.22D+02 IAcc=3 IRadAn=         5 AccDes= 0.00D+00
 Harris functional with IExCor=  402 and IRadAn=       5 diagonalized for initial guess.
 HarFok:  IExCor=  402 AccDes= 0.00D+00 IRadAn=         5 IDoV= 1 UseB2=F ITyADJ=14
 ICtDFT=  3500011 ScaDFX=  1.000000  1.000000  1.000000  1.000000
 FoFCou: FMM=F IPFlag=           0 FMFlag=      100000 FMFlg1=           0
         NFxFlg=           0 DoJE=T BraDBF=F KetDBF=T FulRan=T
         wScrn=  0.000000 ICntrl=       500 IOpCl=  0 I1Cent=   200000004 NGrid=           0
         NMat0=    1 NMatS0=      1 NMatT0=    0 NMatD0=    1 NMtDS0=    0 NMtDT0=    0
 Symmetry not used in FoFCou.
 Keep R1 ints in memory in canonical form, NReq=319363861.
 Requested convergence on RMS density matrix=1.00D-08 within 128 cycles.
 Requested convergence on MAX density matrix=1.00D-06.
 Requested convergence on             energy=1.00D-06.
 No special actions if energy rises.
 Integral accuracy reduced to 1.0D-05 until final iterations.
 Initial convergence to 1.0D-05 achieved.  Increase integral accuracy.
 SCF Done:  E(RB3LYP) =  -269.391777956     A.U. after   14 cycles
            NFock= 14  Conv=0.86D-08     -V/T= 2.0050

 **********************************************************************

            Population analysis using the SCF density.

 **********************************************************************

 Alpha  occ. eigenvalues --  -19.14210 -10.25216 -10.22025 -10.19714 -10.17183
 Alpha  occ. eigenvalues --  -10.16810  -1.04687  -0.82889  -0.75669  -0.66725
 Alpha  occ. eigenvalues --   -0.60755  -0.52726  -0.50981  -0.47029  -0.45940
 Alpha  occ. eigenvalues --   -0.44222  -0.39713  -0.38200  -0.37609  -0.32592
 Alpha  occ. eigenvalues --   -0.28924  -0.21522
 Alpha virt. eigenvalues --   -0.06867   0.00076   0.04601   0.05564   0.07414
 Alpha virt. eigenvalues --    0.07938   0.09478   0.11463   0.12253   0.15881
 Alpha virt. eigenvalues --    0.18106   0.19678   0.20442   0.21643   0.22018
 Alpha virt. eigenvalues --    0.22416   0.24903   0.27443   0.28037   0.29240
 Alpha virt. eigenvalues --    0.30312   0.33328   0.33801   0.36212   0.37826
 Alpha virt. eigenvalues --    0.39998   0.40608   0.42233   0.42877   0.43685
 Alpha virt. eigenvalues --    0.44350   0.44993   0.45669   0.48077   0.49905
 Alpha virt. eigenvalues --    0.52386   0.53838   0.55010   0.57000   0.58468
 Alpha virt. eigenvalues --    0.62261   0.65943   0.68763   0.69582   0.75814
 Alpha virt. eigenvalues --    0.80091   0.82253   0.86860   0.87176   0.89626
 Alpha virt. eigenvalues --    0.92851   0.94054   0.96193   0.97045   0.98037
 Alpha virt. eigenvalues --    1.01131   1.03830   1.07150   1.10757   1.12118
 Alpha virt. eigenvalues --    1.14832   1.17277   1.19506   1.23336   1.23654
 Alpha virt. eigenvalues --    1.28921   1.31306   1.34331   1.39141   1.39901
 Alpha virt. eigenvalues --    1.42831   1.43852   1.46411   1.47808   1.51386
 Alpha virt. eigenvalues --    1.53616   1.57680   1.60098   1.63226   1.65014
 Alpha virt. eigenvalues --    1.66868   1.68601   1.73920   1.77898   1.78544
 Alpha virt. eigenvalues --    1.81026   1.82849   1.85756   1.88175   1.91921
 Alpha virt. eigenvalues --    1.94709   1.97158   2.05335   2.06966   2.10342
 Alpha virt. eigenvalues --    2.15032   2.15854   2.19712   2.20677   2.26225
 Alpha virt. eigenvalues --    2.28133   2.32379   2.37960   2.40881   2.44423
 Alpha virt. eigenvalues --    2.49711   2.52139   2.53088   2.54275   2.56104
 Alpha virt. eigenvalues --    2.59211   2.61515   2.63099   2.65608   2.67862
 Alpha virt. eigenvalues --    2.70423   2.71009   2.76914   2.78183   2.79890
 Alpha virt. eigenvalues --    2.81840   2.83784   2.84265   2.86530   2.89612
 Alpha virt. eigenvalues --    2.91609   2.94743   2.96789   2.98119   3.01829
 Alpha virt. eigenvalues --    3.02894   3.04543   3.06748   3.12109   3.13514
 Alpha virt. eigenvalues --    3.15128   3.17528   3.19728   3.22909   3.23772
 Alpha virt. eigenvalues --    3.24843   3.27756   3.28920   3.35357   3.36073
 Alpha virt. eigenvalues --    3.39310   3.41606   3.43697   3.45839   3.48481
 Alpha virt. eigenvalues --    3.49619   3.52429   3.58121   3.63133   3.63492
 Alpha virt. eigenvalues --    3.68305   3.85234   3.89937   3.91834   3.94204
 Alpha virt. eigenvalues --    3.97311   4.02391   4.03637   4.08592   4.11535
 Alpha virt. eigenvalues --    4.16162   4.17873   4.25899   4.30834   4.32447
 Alpha virt. eigenvalues --    4.38753   4.44055   4.47679   4.54372   4.64696
 Alpha virt. eigenvalues --    4.67004   4.72652   4.81307   4.85645   4.86767
 Alpha virt. eigenvalues --    5.05079   5.14633   5.25059   5.28940   5.52079
 Alpha virt. eigenvalues --    5.61913   5.99667   6.22003   6.34417   6.50425
 Alpha virt. eigenvalues --    6.72620   6.78517   6.97447   7.08360  22.05936
 Alpha virt. eigenvalues --   22.33790  22.51072  22.70011  22.87317  43.80884
          Condensed to atoms (all electrons):
               1          2          3          4          5          6
     1  H    0.573019   0.408840  -0.034903  -0.054507  -0.000312   0.005749
     2  C    0.408840   5.245419   0.413114   0.472563  -0.107540  -0.123777
     3  C   -0.034903   0.413114   4.658818  -0.022163   0.421370   0.508328
     4  C   -0.054507   0.472563  -0.022163   4.898940   0.003967  -0.008913
     5  H   -0.000312  -0.107540   0.421370   0.003967   0.611069  -0.034969
     6  O    0.005749  -0.123777   0.508328  -0.008913  -0.034969   7.954903
     7  C    0.009803  -0.036991  -0.046724   0.483886  -0.005603  -0.024663
     8  H   -0.007948  -0.049019   0.001844   0.413460  -0.000865  -0.000968
     9  C   -0.000174  -0.001927  -0.047494  -0.090811   0.003926   0.074516
    10  H   -0.000203   0.006300  -0.002404  -0.052916  -0.000002   0.000620
    11  H    0.000018  -0.000420   0.001443   0.010135  -0.000014  -0.001816
    12  H    0.000014   0.031905  -0.012429  -0.034030  -0.001731  -0.051546
               7          8          9         10         11         12
     1  H    0.009803  -0.007948  -0.000174  -0.000203   0.000018   0.000014
     2  C   -0.036991  -0.049019  -0.001927   0.006300  -0.000420   0.031905
     3  C   -0.046724   0.001844  -0.047494  -0.002404   0.001443  -0.012429
     4  C    0.483886   0.413460  -0.090811  -0.052916   0.010135  -0.034030
     5  H   -0.005603  -0.000865   0.003926  -0.000002  -0.000014  -0.001731
     6  O   -0.024663  -0.000968   0.074516   0.000620  -0.001816  -0.051546
     7  C    5.006693  -0.042091   0.511719   0.410937  -0.039264  -0.032122
     8  H   -0.042091   0.564567   0.010536  -0.004285  -0.000262   0.000174
     9  C    0.511719   0.010536   4.834274  -0.033491   0.398947   0.431795
    10  H    0.410937  -0.004285  -0.033491   0.565533  -0.006861   0.006847
    11  H   -0.039264  -0.000262   0.398947  -0.006861   0.534284  -0.030538
    12  H   -0.032122   0.000174   0.431795   0.006847  -0.030538   0.560361
 Mulliken charges:
               1
     1  H    0.100605
     2  C   -0.258468
     3  C    0.161200
     4  C   -0.019610
     5  H    0.110703
     6  O   -0.297467
     7  C   -0.195581
     8  H    0.114857
     9  C   -0.091815
    10  H    0.109926
    11  H    0.134347
    12  H    0.131302
 Sum of Mulliken charges =  -0.00000
 Mulliken charges with hydrogens summed into heavy atoms:
               1
     2  C   -0.157862
     3  C    0.271903
     4  C    0.095247
     6  O   -0.297467
     7  C   -0.085655
     9  C    0.173834
 Electronic spatial extent (au):  <R**2>=           1422.7601
 Charge=             -0.0000 electrons
 Dipole moment (field-independent basis, Debye):
    X=             -0.8689    Y=              0.3297    Z=             -0.5287  Tot=              1.0692
 Quadrupole moment (field-independent basis, Debye-Ang):
   XX=            -37.5945   YY=            -36.4208   ZZ=            -34.4521
   XY=             -1.5146   XZ=             -4.3850   YZ=              0.0674
 Traceless Quadrupole moment (field-independent basis, Debye-Ang):
   XX=             -1.4387   YY=             -0.2650   ZZ=              1.7037
   XY=             -1.5146   XZ=             -4.3850   YZ=              0.0674
 Octapole moment (field-independent basis, Debye-Ang**2):
  XXX=             -4.1641  YYY=            -16.2515  ZZZ=           -237.3569  XYY=             -2.7485
  XXY=             -0.9949  XXZ=            -99.4716  XZZ=            -16.7445  YZZ=             -5.4075
  YYZ=            -85.4394  XYZ=             -3.7870
 Hexadecapole moment (field-independent basis, Debye-Ang**3):
 XXXX=           -294.2970 YYYY=            -82.0896 ZZZZ=          -1380.1413 XXXY=             21.9833
 XXXZ=             -4.0643 YYYX=             25.2560 YYYZ=            -32.7424 ZZZX=            -41.9097
 ZZZY=            -27.9204 XXYY=            -58.8124 XXZZ=           -355.4998 YYZZ=           -264.2433
 XXYZ=             -0.8709 YYXZ=             -2.7276 ZZXY=             -3.7313
 N-N= 2.178751587702D+02 E-N=-1.063614404641D+03  KE= 2.680599419372D+02
 1\1\GINC-BHC0006\SP\RB3LYP\def2TZVP\C5H6O1\DHANAWAY\10-Jun-2022\0\\# s
 p B3LYP/Def2TZVP NoSymm\\ts_initalOpt_zmat_AlignedSp\\0,1\H\C,1,1.0815
 6519\C,2,1.41317811,1,116.39100818\C,2,1.39888274,1,119.66859241,3,154
 .83104467,0\H,3,1.09688771,2,115.63487628,1,12.05147398,0\O,3,1.256770
 48,2,128.0709295,5,171.43425531,0\C,4,1.38897396,2,120.88860272,1,-176
 .82554659,0\H,4,1.08604499,2,118.16898304,7,168.94191651,0\C,7,1.39154
 798,4,117.32014816,2,-21.18961525,0\H,7,1.08300587,4,120.74978445,9,16
 9.69548039,0\H,9,1.08253896,7,120.84503568,4,163.18628083,0\H,9,1.0811
 2526,7,118.50256483,11,152.61335417,0\\Version=ES64L-G16RevA.03\HF=-26
 9.391778\RMSD=8.561e-09\Dipole=-0.3418404,0.1297253,-0.2080051\Quadrup
 ole=-1.0696325,-0.1970522,1.2666847,-1.1260804,-3.2601063,0.0500954\PG
 =C01 [X(C5H6O1)]\\@


 QED = W**5 (WHICH WAS WHAT WE WANTED)
 Job cpu time:       0 days  0 hours  2 minutes 38.0 seconds.
 Elapsed time:       0 days  0 hours  0 minutes 20.5 seconds.
 File lengths (MBytes):  RWF=     25 Int=      0 D2E=      0 Chk=     32 Scr=      1
 Normal termination of Gaussian 16 at Fri Jun 10 22:20:25 2022.
