 Entering Gaussian System, Link 0=g16
 Input=int.gjf
 Output=int.out
 Initial command:
 /software/gaussian/g16-a03/l1.exe "/local_scratch/11176879/Gau-19696.inp" -scrdir="/local_scratch/11176879/"
 Entering Link 1 = /software/gaussian/g16-a03/l1.exe PID=     19697.
  
 Copyright (c) 1988,1990,1992,1993,1995,1998,2003,2009,2016,
            Gaussian, Inc.  All Rights Reserved.
  
 This is part of the Gaussian(R) 16 program.  It is based on
 the Gaussian(R) 09 system (copyright 2009, Gaussian, Inc.),
 the Gaussian(R) 03 system (copyright 2003, Gaussian, Inc.),
 the Gaussian(R) 98 system (copyright 1998, Gaussian, Inc.),
 the Gaussian(R) 94 system (copyright 1995, Gaussian, Inc.),
 the Gaussian 92(TM) system (copyright 1992, Gaussian, Inc.),
 the Gaussian 90(TM) system (copyright 1990, Gaussian, Inc.),
 the Gaussian 88(TM) system (copyright 1988, Gaussian, Inc.),
 the Gaussian 86(TM) system (copyright 1986, Carnegie Mellon
 University), and the Gaussian 82(TM) system (copyright 1983,
 Carnegie Mellon University). Gaussian is a federally registered
 trademark of Gaussian, Inc.
  
 This software contains proprietary and confidential information,
 including trade secrets, belonging to Gaussian, Inc.
  
 This software is provided under written license and may be
 used, copied, transmitted, or stored only in accord with that
 written license.
  
 The following legend is applicable only to US Government
 contracts under FAR:
  
                    RESTRICTED RIGHTS LEGEND
  
 Use, reproduction and disclosure by the US Government is
 subject to restrictions as set forth in subparagraphs (a)
 and (c) of the Commercial Computer Software - Restricted
 Rights clause in FAR 52.227-19.
  
 Gaussian, Inc.
 340 Quinnipiac St., Bldg. 40, Wallingford CT 06492
  
  
 ---------------------------------------------------------------
 Warning -- This program may not be used in any manner that
 competes with the business of Gaussian, Inc. or will provide
 assistance to any competitor of Gaussian, Inc.  The licensee
 of this program is prohibited from giving any competitor of
 Gaussian, Inc. access to this program.  By using this program,
 the user acknowledges that Gaussian, Inc. is engaged in the
 business of creating and licensing software in the field of
 computational chemistry and represents and warrants to the
 licensee that it is not a competitor of Gaussian, Inc. and that
 it will not use this program in any manner prohibited above.
 ---------------------------------------------------------------
  

 Cite this work as:
 Gaussian 16, Revision A.03,
 M. J. Frisch, G. W. Trucks, H. B. Schlegel, G. E. Scuseria, 
 M. A. Robb, J. R. Cheeseman, G. Scalmani, V. Barone, 
 G. A. Petersson, H. Nakatsuji, X. Li, M. Caricato, A. V. Marenich, 
 J. Bloino, B. G. Janesko, R. Gomperts, B. Mennucci, H. P. Hratchian, 
 J. V. Ortiz, A. F. Izmaylov, J. L. Sonnenberg, D. Williams-Young, 
 F. Ding, F. Lipparini, F. Egidi, J. Goings, B. Peng, A. Petrone, 
 T. Henderson, D. Ranasinghe, V. G. Zakrzewski, J. Gao, N. Rega, 
 G. Zheng, W. Liang, M. Hada, M. Ehara, K. Toyota, R. Fukuda, 
 J. Hasegawa, M. Ishida, T. Nakajima, Y. Honda, O. Kitao, H. Nakai, 
 T. Vreven, K. Throssell, J. A. Montgomery, Jr., J. E. Peralta, 
 F. Ogliaro, M. J. Bearpark, J. J. Heyd, E. N. Brothers, K. N. Kudin, 
 V. N. Staroverov, T. A. Keith, R. Kobayashi, J. Normand, 
 K. Raghavachari, A. P. Rendell, J. C. Burant, S. S. Iyengar, 
 J. Tomasi, M. Cossi, J. M. Millam, M. Klene, C. Adamo, R. Cammi, 
 J. W. Ochterski, R. L. Martin, K. Morokuma, O. Farkas, 
 J. B. Foresman, and D. J. Fox, Gaussian, Inc., Wallingford CT, 2016.
 
 ******************************************
 Gaussian 16:  ES64L-G16RevA.03 25-Dec-2016
                11-Jun-2022 
 ******************************************
 %nprocshared=12
 Will use up to   12 processors via shared memory.
 %chk=checkpoint.chk
 %mem=12GB
 ------------------------------------------------
 # Opt=tight B3LYP/Def2TZVP freq=noraman pop=none
 ------------------------------------------------
 1/7=10,18=20,19=15,26=3,38=1/1,3;
 2/9=110,12=2,17=6,18=5,40=1/2;
 3/5=44,7=101,11=2,25=1,30=1,71=1,74=-5/1,2,3;
 4//1;
 5/5=2,38=5/2;
 7//1,2,3,16;
 1/7=10,18=20,19=15,26=3/3(2);
 2/9=110/2;
 99//99;
 2/9=110/2;
 3/5=44,7=101,11=2,25=1,30=1,71=1,74=-5/1,2,3;
 4/5=5,16=3,69=1/1;
 5/5=2,38=5/2;
 7//1,2,3,16;
 1/7=10,18=20,19=15,26=3/3(-5);
 2/9=110/2;
 99/9=1/99;
 -------------
 int_initalOpt
 -------------
 Symbolic Z-matrix:
 Charge =  0 Multiplicity = 1
 6                    -1.45457  -1.0616    0.66593 
 6                     0.24056   2.26639   1.17653 
 6                     1.28657   1.53862  -0.72882 
 6                     1.2829    1.53934   0.73536 
 1                     2.01824   1.02926  -1.34001 
 1                     2.01137   1.03043   1.35074 
 6                    -0.51396   2.81005  -0.00186 
 1                    -1.56643   2.50066  -0.00434 
 1                    -0.5281    3.90725  -0.00246 
 1                    -0.01239   2.45582  -2.20694 
 1                    -0.02331   2.45817   2.20605 
 8                     0.16812  -1.94011  -2.23849 
 8                     0.18464  -1.93606   2.23065 
 6                    -0.21275  -1.72084  -1.13275 
 6                    -0.20434  -1.7187    1.12735 
 1                    -2.19638  -0.67955  -1.35084 
 6                     0.24642   2.26515  -1.17592 
 6                    -1.45955  -1.06297  -0.66331 
 1                    -2.18611  -0.67656   1.35816 
 8                     0.51182  -2.0922   -0.00501 
 
 Add virtual bond connecting atoms C1         and H8         Dist= 6.85D+00.
 Add virtual bond connecting atoms O12        and H5         Dist= 6.83D+00.
 Add virtual bond connecting atoms O13        and H6         Dist= 6.79D+00.
 Add virtual bond connecting atoms C14        and C3         Dist= 6.82D+00.
 Add virtual bond connecting atoms C14        and H5         Dist= 6.70D+00.

 GradGradGradGradGradGradGradGradGradGradGradGradGradGradGradGradGradGrad
 Berny optimization.
 Initialization pass.
                           ----------------------------
                           !    Initial Parameters    !
                           ! (Angstroms and Degrees)  !
 --------------------------                            --------------------------
 ! Name  Definition              Value          Derivative Info.                !
 --------------------------------------------------------------------------------
 ! R1    R(1,8)                  3.6265         estimate D2E/DX2                !
 ! R2    R(1,15)                 1.4859         estimate D2E/DX2                !
 ! R3    R(1,18)                 1.3293         estimate D2E/DX2                !
 ! R4    R(1,19)                 1.0782         estimate D2E/DX2                !
 ! R5    R(2,4)                  1.3452         estimate D2E/DX2                !
 ! R6    R(2,7)                  1.5012         estimate D2E/DX2                !
 ! R7    R(2,11)                 1.08           estimate D2E/DX2                !
 ! R8    R(3,4)                  1.4642         estimate D2E/DX2                !
 ! R9    R(3,5)                  1.0809         estimate D2E/DX2                !
 ! R10   R(3,14)                 3.6104         estimate D2E/DX2                !
 ! R11   R(3,17)                 1.3452         estimate D2E/DX2                !
 ! R12   R(4,6)                  1.0809         estimate D2E/DX2                !
 ! R13   R(5,12)                 3.6121         estimate D2E/DX2                !
 ! R14   R(5,14)                 3.5473         estimate D2E/DX2                !
 ! R15   R(6,13)                 3.5932         estimate D2E/DX2                !
 ! R16   R(7,8)                  1.097          estimate D2E/DX2                !
 ! R17   R(7,9)                  1.0973         estimate D2E/DX2                !
 ! R18   R(7,17)                 1.5012         estimate D2E/DX2                !
 ! R19   R(10,17)                1.08           estimate D2E/DX2                !
 ! R20   R(12,14)                1.1899         estimate D2E/DX2                !
 ! R21   R(13,15)                1.1899         estimate D2E/DX2                !
 ! R22   R(14,18)                1.4858         estimate D2E/DX2                !
 ! R23   R(14,20)                1.3909         estimate D2E/DX2                !
 ! R24   R(15,20)                1.3909         estimate D2E/DX2                !
 ! R25   R(16,18)                1.0783         estimate D2E/DX2                !
 ! A1    A(8,1,15)             121.1821         estimate D2E/DX2                !
 ! A2    A(8,1,18)              79.4014         estimate D2E/DX2                !
 ! A3    A(8,1,19)              75.3423         estimate D2E/DX2                !
 ! A4    A(15,1,18)            108.2546         estimate D2E/DX2                !
 ! A5    A(15,1,19)            121.9667         estimate D2E/DX2                !
 ! A6    A(18,1,19)            129.7785         estimate D2E/DX2                !
 ! A7    A(4,2,7)              109.1325         estimate D2E/DX2                !
 ! A8    A(4,2,11)             126.7208         estimate D2E/DX2                !
 ! A9    A(7,2,11)             124.1387         estimate D2E/DX2                !
 ! A10   A(4,3,5)              124.5667         estimate D2E/DX2                !
 ! A11   A(4,3,14)              96.3892         estimate D2E/DX2                !
 ! A12   A(4,3,17)             109.278          estimate D2E/DX2                !
 ! A13   A(5,3,17)             126.1552         estimate D2E/DX2                !
 ! A14   A(14,3,17)             97.4293         estimate D2E/DX2                !
 ! A15   A(2,4,3)              109.2779         estimate D2E/DX2                !
 ! A16   A(2,4,6)              126.153          estimate D2E/DX2                !
 ! A17   A(3,4,6)              124.5691         estimate D2E/DX2                !
 ! A18   A(3,5,12)             100.4465         estimate D2E/DX2                !
 ! A19   A(4,6,13)             100.6896         estimate D2E/DX2                !
 ! A20   A(2,7,8)              112.4487         estimate D2E/DX2                !
 ! A21   A(2,7,9)              111.6565         estimate D2E/DX2                !
 ! A22   A(2,7,17)             103.1723         estimate D2E/DX2                !
 ! A23   A(8,7,9)              105.6431         estimate D2E/DX2                !
 ! A24   A(8,7,17)             112.4466         estimate D2E/DX2                !
 ! A25   A(9,7,17)             111.657          estimate D2E/DX2                !
 ! A26   A(1,8,7)              104.3013         estimate D2E/DX2                !
 ! A27   A(6,13,15)             77.7795         estimate D2E/DX2                !
 ! A28   A(3,14,12)             97.898          estimate D2E/DX2                !
 ! A29   A(3,14,18)             85.0319         estimate D2E/DX2                !
 ! A30   A(3,14,20)             86.2158         estimate D2E/DX2                !
 ! A31   A(5,14,18)            101.7096         estimate D2E/DX2                !
 ! A32   A(5,14,20)             85.7985         estimate D2E/DX2                !
 ! A33   A(12,14,18)           130.0755         estimate D2E/DX2                !
 ! A34   A(12,14,20)           122.514          estimate D2E/DX2                !
 ! A35   A(18,14,20)           107.4077         estimate D2E/DX2                !
 ! A36   A(1,15,13)            130.0756         estimate D2E/DX2                !
 ! A37   A(1,15,20)            107.4077         estimate D2E/DX2                !
 ! A38   A(13,15,20)           122.5139         estimate D2E/DX2                !
 ! A39   A(3,17,7)             109.1326         estimate D2E/DX2                !
 ! A40   A(3,17,10)            126.7227         estimate D2E/DX2                !
 ! A41   A(7,17,10)            124.1368         estimate D2E/DX2                !
 ! A42   A(1,18,14)            108.2553         estimate D2E/DX2                !
 ! A43   A(1,18,16)            129.7789         estimate D2E/DX2                !
 ! A44   A(14,18,16)           121.9656         estimate D2E/DX2                !
 ! A45   A(14,20,15)           108.6727         estimate D2E/DX2                !
 ! D1    D(15,1,8,7)            11.9209         estimate D2E/DX2                !
 ! D2    D(18,1,8,7)           -93.1046         estimate D2E/DX2                !
 ! D3    D(19,1,8,7)           130.6949         estimate D2E/DX2                !
 ! D4    D(8,1,15,13)           92.413          estimate D2E/DX2                !
 ! D5    D(8,1,15,20)          -88.195          estimate D2E/DX2                !
 ! D6    D(18,1,15,13)        -179.1206         estimate D2E/DX2                !
 ! D7    D(18,1,15,20)           0.2714         estimate D2E/DX2                !
 ! D8    D(19,1,15,13)           0.7493         estimate D2E/DX2                !
 ! D9    D(19,1,15,20)        -179.8587         estimate D2E/DX2                !
 ! D10   D(8,1,18,14)          119.5257         estimate D2E/DX2                !
 ! D11   D(8,1,18,16)          -60.6253         estimate D2E/DX2                !
 ! D12   D(15,1,18,14)          -0.0083         estimate D2E/DX2                !
 ! D13   D(15,1,18,16)         179.8407         estimate D2E/DX2                !
 ! D14   D(19,1,18,14)        -179.8647         estimate D2E/DX2                !
 ! D15   D(19,1,18,16)          -0.0157         estimate D2E/DX2                !
 ! D16   D(7,2,4,3)             -0.5132         estimate D2E/DX2                !
 ! D17   D(7,2,4,6)            179.4664         estimate D2E/DX2                !
 ! D18   D(11,2,4,3)          -179.5174         estimate D2E/DX2                !
 ! D19   D(11,2,4,6)             0.4622         estimate D2E/DX2                !
 ! D20   D(4,2,7,8)            122.1814         estimate D2E/DX2                !
 ! D21   D(4,2,7,9)           -119.2659         estimate D2E/DX2                !
 ! D22   D(4,2,7,17)             0.7829         estimate D2E/DX2                !
 ! D23   D(11,2,7,8)           -58.783          estimate D2E/DX2                !
 ! D24   D(11,2,7,9)            59.7697         estimate D2E/DX2                !
 ! D25   D(11,2,7,17)          179.8185         estimate D2E/DX2                !
 ! D26   D(5,3,4,2)            179.9674         estimate D2E/DX2                !
 ! D27   D(5,3,4,6)             -0.0126         estimate D2E/DX2                !
 ! D28   D(14,3,4,2)          -100.1991         estimate D2E/DX2                !
 ! D29   D(14,3,4,6)            79.8209         estimate D2E/DX2                !
 ! D30   D(17,3,4,2)            -0.0037         estimate D2E/DX2                !
 ! D31   D(17,3,4,6)          -179.9837         estimate D2E/DX2                !
 ! D32   D(4,3,5,12)           100.3138         estimate D2E/DX2                !
 ! D33   D(17,3,5,12)          -79.72           estimate D2E/DX2                !
 ! D34   D(4,3,14,12)         -158.3452         estimate D2E/DX2                !
 ! D35   D(4,3,14,18)           71.8366         estimate D2E/DX2                !
 ! D36   D(4,3,14,20)          -36.0241         estimate D2E/DX2                !
 ! D37   D(17,3,14,12)          91.1901         estimate D2E/DX2                !
 ! D38   D(17,3,14,18)         -38.6281         estimate D2E/DX2                !
 ! D39   D(17,3,14,20)        -146.4888         estimate D2E/DX2                !
 ! D40   D(4,3,17,7)             0.519          estimate D2E/DX2                !
 ! D41   D(4,3,17,10)          179.5263         estimate D2E/DX2                !
 ! D42   D(5,3,17,7)          -179.4515         estimate D2E/DX2                !
 ! D43   D(5,3,17,10)           -0.4443         estimate D2E/DX2                !
 ! D44   D(14,3,17,7)           99.987          estimate D2E/DX2                !
 ! D45   D(14,3,17,10)         -81.0057         estimate D2E/DX2                !
 ! D46   D(2,4,6,13)            80.0238         estimate D2E/DX2                !
 ! D47   D(3,4,6,13)           -99.9996         estimate D2E/DX2                !
 ! D48   D(3,5,12,14)          -34.6607         estimate D2E/DX2                !
 ! D49   D(4,6,13,15)           34.1316         estimate D2E/DX2                !
 ! D50   D(2,7,8,1)            -47.0102         estimate D2E/DX2                !
 ! D51   D(9,7,8,1)           -169.0394         estimate D2E/DX2                !
 ! D52   D(17,7,8,1)            68.932          estimate D2E/DX2                !
 ! D53   D(2,7,17,3)            -0.7852         estimate D2E/DX2                !
 ! D54   D(2,7,17,10)         -179.8239         estimate D2E/DX2                !
 ! D55   D(8,7,17,3)          -122.1852         estimate D2E/DX2                !
 ! D56   D(8,7,17,10)           58.7762         estimate D2E/DX2                !
 ! D57   D(9,7,17,3)           119.2632         estimate D2E/DX2                !
 ! D58   D(9,7,17,10)          -59.7754         estimate D2E/DX2                !
 ! D59   D(6,13,15,1)          -99.4575         estimate D2E/DX2                !
 ! D60   D(6,13,15,20)          81.2305         estimate D2E/DX2                !
 ! D61   D(3,14,18,1)          -84.7093         estimate D2E/DX2                !
 ! D62   D(3,14,18,16)          95.4275         estimate D2E/DX2                !
 ! D63   D(5,14,18,1)          -89.488          estimate D2E/DX2                !
 ! D64   D(5,14,18,16)          90.6488         estimate D2E/DX2                !
 ! D65   D(12,14,18,1)         179.1416         estimate D2E/DX2                !
 ! D66   D(12,14,18,16)         -0.7216         estimate D2E/DX2                !
 ! D67   D(20,14,18,1)          -0.2575         estimate D2E/DX2                !
 ! D68   D(20,14,18,16)        179.8793         estimate D2E/DX2                !
 ! D69   D(3,14,20,15)          84.0153         estimate D2E/DX2                !
 ! D70   D(5,14,20,15)         101.3947         estimate D2E/DX2                !
 ! D71   D(12,14,20,15)       -179.0264         estimate D2E/DX2                !
 ! D72   D(18,14,20,15)          0.4283         estimate D2E/DX2                !
 ! D73   D(1,15,20,14)          -0.4332         estimate D2E/DX2                !
 ! D74   D(13,15,20,14)        179.0151         estimate D2E/DX2                !
 --------------------------------------------------------------------------------
 Trust Radius=3.00D-01 FncErr=1.00D-07 GrdErr=1.00D-06 EigMax=2.50D+02 EigMin=1.00D-04
 Number of steps in this run=    120 maximum allowed number of steps=    120.
 GradGradGradGradGradGradGradGradGradGradGradGradGradGradGradGradGradGrad

                          Input orientation:                          
 ---------------------------------------------------------------------
 Center     Atomic      Atomic             Coordinates (Angstroms)
 Number     Number       Type             X           Y           Z
 ---------------------------------------------------------------------
      1          6           0       -1.454566   -1.061596    0.665929
      2          6           0        0.240559    2.266385    1.176525
      3          6           0        1.286568    1.538617   -0.728824
      4          6           0        1.282897    1.539337    0.735360
      5          1           0        2.018245    1.029258   -1.340006
      6          1           0        2.011366    1.030435    1.350739
      7          6           0       -0.513962    2.810052   -0.001861
      8          1           0       -1.566433    2.500664   -0.004343
      9          1           0       -0.528098    3.907250   -0.002463
     10          1           0       -0.012393    2.455818   -2.206935
     11          1           0       -0.023308    2.458174    2.206051
     12          8           0        0.168121   -1.940113   -2.238494
     13          8           0        0.184643   -1.936056    2.230648
     14          6           0       -0.212748   -1.720840   -1.132753
     15          6           0       -0.204341   -1.718702    1.127351
     16          1           0       -2.196382   -0.679552   -1.350842
     17          6           0        0.246422    2.265152   -1.175922
     18          6           0       -1.459552   -1.062968   -0.663312
     19          1           0       -2.186114   -0.676556    1.358164
     20          8           0        0.511817   -2.092202   -0.005013
 ---------------------------------------------------------------------
                    Distance matrix (angstroms):
                    1          2          3          4          5
     1  C    0.000000
     2  C    3.769564   0.000000
     3  C    4.027438   2.292190   0.000000
     4  C    3.776689   1.345249   1.464189   0.000000
     5  H    4.522816   3.320178   1.080898   2.260102   0.000000
     6  H    4.105879   2.166490   2.260125   1.080898   2.690754
     7  C    4.039844   1.501156   2.320976   2.320973   3.372526
     8  H    3.626496   2.171303   3.096776   3.096771   4.098652
     9  H    5.098482   2.161778   3.070999   3.071009   4.068872
    10  H    4.765020   3.398186   2.171030   3.342875   2.628713
    11  H    4.099909   1.079969   3.342881   2.171029   4.334081
    12  O    3.441014   5.418692   3.953681   4.710956   3.612119
    13  O    2.428998   4.332991   4.695324   3.939594   4.990466
    14  C    2.282974   4.629926   3.610425   4.044200   3.547298
    15  C    1.485854   4.010146   4.034640   3.602826   4.310339
    16  H    2.182570   4.583101   4.175898   4.623969   4.547882
    17  C    4.165697   2.352455   1.345234   2.292179   2.166498
    18  C    1.329251   4.166530   3.783347   4.031042   4.114656
    19  H    1.078243   3.818722   4.617578   4.163184   5.278878
    20  O    2.319262   4.524035   3.782458   3.785603   3.714168
                    6          7          8          9         10
     6  H    0.000000
     7  C    3.372513   0.000000
     8  H    4.098593   1.097006   0.000000
     9  H    4.068918   1.097289   1.748321   0.000000
    10  H    4.334093   2.288975   2.696009   2.689294   0.000000
    11  H    2.628668   2.288981   2.696086   2.689269   4.413000
    12  O    5.010419   5.294510   5.265036   6.298905   4.399749
    13  O    3.593219   5.291284   5.267441   6.295952   6.246561
    14  C    4.322491   4.679597   4.574589   5.749122   4.317231
    15  C    3.537939   4.677670   4.575923   5.747402   5.346113
    16  H    5.284670   4.102149   3.510508   5.063600   3.915769
    17  C    3.320176   1.501173   2.171291   2.161799   1.079966
    18  C    4.526147   4.041280   3.625622   5.099745   4.105959
    19  H    4.531304   4.099048   3.512144   5.060790   5.219843
    20  O    3.719889   5.008426   5.041185   6.088912   5.080132
                   11         12         13         14         15
    11  H    0.000000
    12  O    6.255842   0.000000
    13  O    4.399217   4.469174   0.000000
    14  C    5.352351   1.189876   3.393627   0.000000
    15  C    4.317715   3.393621   1.189880   2.260121   0.000000
    16  H    5.217189   2.822732   4.480530   2.250921   3.345071
    17  C    3.398199   4.338138   5.409130   4.012584   4.623781
    18  C    4.763873   2.428971   3.441027   1.485830   2.282984
    19  H    3.901689   4.480508   2.822775   3.345052   2.250948
    20  O    5.087346   2.264883   2.264863   1.390936   1.390911
                   16         17         18         19         20
    16  H    0.000000
    17  C    3.830035   0.000000
    18  C    1.078250   3.774851   0.000000
    19  H    2.709027   4.581754   2.182561   0.000000
    20  O    3.337840   4.519734   2.319262   3.337834   0.000000
 Stoichiometry    C9H8O3
 Framework group  C1[X(C9H8O3)]
 Deg. of freedom    54
 Full point group                 C1      NOp   1
 Largest Abelian subgroup         C1      NOp   1
 Largest concise Abelian subgroup C1      NOp   1
                         Standard orientation:                         
 ---------------------------------------------------------------------
 Center     Atomic      Atomic             Coordinates (Angstroms)
 Number     Number       Type             X           Y           Z
 ---------------------------------------------------------------------
      1          6           0        1.157086    0.664636    1.319064
      2          6           0       -2.357797    1.171881    0.054976
      3          6           0       -1.762128   -0.727975   -1.080745
      4          6           0       -1.765710    0.736182   -1.071652
      5          1           0       -1.346814   -1.335320   -1.872570
      6          1           0       -1.353233    1.355374   -1.855747
      7          6           0       -2.800231   -0.010494    0.867201
      8          1           0       -2.361736   -0.015662    1.872745
      9          1           0       -3.887057   -0.014118    1.018332
     10          1           0       -2.506448   -2.212908    0.317229
     11          1           0       -2.517445    2.199994    0.344509
     12          8           0        1.832523   -2.231945   -0.411307
     13          8           0        1.816282    2.237200   -0.410830
     14          6           0        1.660055   -1.128084   -0.001977
     15          6           0        1.651750    1.132021   -0.001776
     16          1           0        0.875323   -1.355636    2.095418
     17          6           0       -2.351963   -1.180521    0.040393
     18          6           0        1.162089   -0.664606    1.318973
     19          1           0        0.864915    1.353371    2.095522
     20          8           0        1.935394    0.003078   -0.763135
 ---------------------------------------------------------------------
 Rotational constants (GHZ):           1.3365536           0.7037533           0.5819492
 Standard basis: def2TZVP (5D, 7F)
 There are   480 symmetry adapted cartesian basis functions of A   symmetry.
 There are   420 symmetry adapted basis functions of A   symmetry.
   420 basis functions,   676 primitive gaussians,   480 cartesian basis functions
    43 alpha electrons       43 beta electrons
       nuclear repulsion energy       652.5219234923 Hartrees.
 NAtoms=   20 NActive=   20 NUniq=   20 SFac= 1.00D+00 NAtFMM=   60 NAOKFM=F Big=F
 Integral buffers will be    131072 words long.
 Raffenetti 2 integral format.
 Two-electron integral symmetry is turned on.
 One-electron integrals computed using PRISM.
   1 Symmetry operations used in ECPInt.
 ECPInt:  NShTT=   13530 NPrTT=   41904 LenC2=   12940 LenP2D=   30399.
 LDataN:  DoStor=T MaxTD1= 6 Len=  172
 NBasis=   420 RedAO= T EigKep=  4.26D-05  NBF=   420
 NBsUse=   420 1.00D-06 EigRej= -1.00D+00 NBFU=   420
 ExpMin= 9.52D-02 ExpMax= 2.70D+04 ExpMxC= 9.22D+02 IAcc=3 IRadAn=         5 AccDes= 0.00D+00
 Harris functional with IExCor=  402 and IRadAn=       5 diagonalized for initial guess.
 HarFok:  IExCor=  402 AccDes= 0.00D+00 IRadAn=         5 IDoV= 1 UseB2=F ITyADJ=14
 ICtDFT=  3500011 ScaDFX=  1.000000  1.000000  1.000000  1.000000
 FoFCou: FMM=F IPFlag=           0 FMFlag=      100000 FMFlg1=           0
         NFxFlg=           0 DoJE=T BraDBF=F KetDBF=T FulRan=T
         wScrn=  0.000000 ICntrl=       500 IOpCl=  0 I1Cent=   200000004 NGrid=           0
         NMat0=    1 NMatS0=      1 NMatT0=    0 NMatD0=    1 NMtDS0=    0 NMtDT0=    0
 Petite list used in FoFCou.
 Requested convergence on RMS density matrix=1.00D-08 within 128 cycles.
 Requested convergence on MAX density matrix=1.00D-06.
 Requested convergence on             energy=1.00D-06.
 No special actions if energy rises.
 Integral accuracy reduced to 1.0D-05 until final iterations.
 Initial convergence to 1.0D-05 achieved.  Increase integral accuracy.
 SCF Done:  E(RB3LYP) =  -573.628843962     A.U. after   14 cycles
            NFock= 14  Conv=0.59D-08     -V/T= 2.0047
   1 Symmetry operations used in ECPInt.
 ECPInt:  NShTT=   13530 NPrTT=   41904 LenC2=   12940 LenP2D=   30399.
 LDataN:  DoStor=T MaxTD1= 7 Len=  274
 Calling FoFJK, ICntrl=      2127 FMM=F ISym2X=0 I1Cent= 0 IOpClX= 0 NMat=1 NMatS=1 NMatT=0.
 ***** Axes restored to original set *****
 -------------------------------------------------------------------
 Center     Atomic                   Forces (Hartrees/Bohr)
 Number     Number              X              Y              Z
 -------------------------------------------------------------------
      1        6           0.000004583   -0.000000569    0.000009668
      2        6          -0.000002309   -0.000007429   -0.000000026
      3        6           0.000000250    0.000002185    0.000004503
      4        6           0.000000570    0.000006058   -0.000002883
      5        1          -0.000003608   -0.000005506   -0.000001405
      6        1           0.000001734    0.000001255    0.000000518
      7        6           0.000000166    0.000016210   -0.000003453
      8        1           0.000003039   -0.000007664    0.000001236
      9        1          -0.000000310   -0.000001057   -0.000001746
     10        1           0.000001361   -0.000000368    0.000000462
     11        1          -0.000000298   -0.000000325   -0.000000504
     12        8           0.000008431   -0.000000921   -0.000008942
     13        8           0.000008622   -0.000000987    0.000007302
     14        6          -0.000012570    0.000015196    0.000016754
     15        6          -0.000022169    0.000008322   -0.000013931
     16        1           0.000000616    0.000005264    0.000004311
     17        6          -0.000003119   -0.000004007   -0.000000702
     18        6           0.000004282   -0.000007771   -0.000008681
     19        1          -0.000004101   -0.000007607   -0.000001369
     20        8           0.000014829   -0.000010281   -0.000001112
 -------------------------------------------------------------------
 Cartesian Forces:  Max     0.000022169 RMS     0.000007050

 GradGradGradGradGradGradGradGradGradGradGradGradGradGradGradGradGradGrad
 Berny optimization.
 FormGI is forming the generalized inverse of G from B-inverse, IUseBI=4.
 Internal  Forces:  Max     0.000011241 RMS     0.000002473
 Search for a local minimum.
 Step number   1 out of a maximum of  120
 All quantities printed in internal units (Hartrees-Bohrs-Radians)
 Mixed Optimization -- En-DIIS/RFO-DIIS
 Second derivative matrix not updated -- first step.
 ITU=  0
     Eigenvalues ---    0.00710   0.00992   0.01050   0.01422   0.01528
     Eigenvalues ---    0.01637   0.01824   0.01910   0.02420   0.02746
     Eigenvalues ---    0.02896   0.03068   0.03269   0.03569   0.04217
     Eigenvalues ---    0.04419   0.04781   0.05920   0.06404   0.07710
     Eigenvalues ---    0.07919   0.08843   0.10230   0.11529   0.12737
     Eigenvalues ---    0.14100   0.14637   0.15995   0.15996   0.16000
     Eigenvalues ---    0.17579   0.19426   0.20444   0.21580   0.27045
     Eigenvalues ---    0.28865   0.31063   0.32376   0.33259   0.33743
     Eigenvalues ---    0.33984   0.34586   0.35304   0.35998   0.35998
     Eigenvalues ---    0.36207   0.36207   0.40355   0.44988   0.48110
     Eigenvalues ---    0.53518   0.54578   1.06161   1.06711
 RFO step:  Lambda= 0.00000000D+00 EMin= 7.10169521D-03
 Linear search not attempted -- first point.
 Iteration  1 RMS(Cart)=  0.00004361 RMS(Int)=  0.00000000
 Iteration  2 RMS(Cart)=  0.00000000 RMS(Int)=  0.00000000
 Variable       Old X    -DE/DX   Delta X   Delta X   Delta X     New X
                                 (Linear)    (Quad)   (Total)
    R1        6.85308   0.00000   0.00000   0.00015   0.00015   6.85324
    R2        2.80786  -0.00001   0.00000  -0.00002  -0.00002   2.80784
    R3        2.51192   0.00000   0.00000  -0.00000  -0.00000   2.51192
    R4        2.03758  -0.00000   0.00000  -0.00000  -0.00000   2.03758
    R5        2.54215  -0.00000   0.00000  -0.00000  -0.00000   2.54215
    R6        2.83677   0.00000   0.00000   0.00001   0.00001   2.83678
    R7        2.04085  -0.00000   0.00000  -0.00000  -0.00000   2.04084
    R8        2.76692  -0.00000   0.00000  -0.00001  -0.00001   2.76690
    R9        2.04260   0.00000   0.00000   0.00000   0.00000   2.04261
   R10        6.82271  -0.00000   0.00000  -0.00012  -0.00012   6.82260
   R11        2.54212  -0.00000   0.00000  -0.00000  -0.00000   2.54212
   R12        2.04260   0.00000   0.00000   0.00000   0.00000   2.04260
   R13        6.82592  -0.00000   0.00000  -0.00021  -0.00021   6.82570
   R14        6.70342  -0.00000   0.00000  -0.00017  -0.00017   6.70325
   R15        6.79020   0.00000   0.00000   0.00013   0.00013   6.79033
   R16        2.07304   0.00000   0.00000   0.00000   0.00000   2.07304
   R17        2.07358  -0.00000   0.00000  -0.00000  -0.00000   2.07357
   R18        2.83681  -0.00000   0.00000   0.00000   0.00000   2.83681
   R19        2.04084  -0.00000   0.00000  -0.00000  -0.00000   2.04084
   R20        2.24854   0.00001   0.00000   0.00001   0.00001   2.24855
   R21        2.24855   0.00001   0.00000   0.00001   0.00001   2.24856
   R22        2.80781  -0.00000   0.00000  -0.00002  -0.00002   2.80780
   R23        2.62849   0.00000   0.00000   0.00001   0.00001   2.62849
   R24        2.62844   0.00000   0.00000   0.00001   0.00001   2.62845
   R25        2.03760  -0.00000   0.00000  -0.00000  -0.00000   2.03760
    A1        2.11503  -0.00000   0.00000  -0.00002  -0.00002   2.11500
    A2        1.38582  -0.00000   0.00000  -0.00007  -0.00007   1.38575
    A3        1.31497   0.00000   0.00000   0.00007   0.00007   1.31504
    A4        1.88940  -0.00000   0.00000  -0.00001  -0.00001   1.88939
    A5        2.12872   0.00000   0.00000   0.00003   0.00003   2.12875
    A6        2.26506  -0.00000   0.00000  -0.00002  -0.00002   2.26504
    A7        1.90472   0.00000   0.00000   0.00000   0.00000   1.90473
    A8        2.21170  -0.00000   0.00000  -0.00000  -0.00000   2.21169
    A9        2.16663   0.00000   0.00000  -0.00000  -0.00000   2.16663
   A10        2.17410  -0.00000   0.00000  -0.00000  -0.00000   2.17410
   A11        1.68231   0.00000   0.00000   0.00003   0.00003   1.68234
   A12        1.90726   0.00000   0.00000   0.00000   0.00000   1.90726
   A13        2.20182  -0.00000   0.00000   0.00000   0.00000   2.20182
   A14        1.70046  -0.00000   0.00000  -0.00002  -0.00002   1.70045
   A15        1.90726  -0.00000   0.00000  -0.00000  -0.00000   1.90726
   A16        2.20179   0.00000   0.00000   0.00000   0.00000   2.20179
   A17        2.17414  -0.00000   0.00000  -0.00000  -0.00000   2.17414
   A18        1.75312   0.00000   0.00000   0.00003   0.00003   1.75315
   A19        1.75737   0.00000   0.00000  -0.00000  -0.00000   1.75736
   A20        1.96260  -0.00000   0.00000  -0.00005  -0.00005   1.96255
   A21        1.94877   0.00000   0.00000   0.00003   0.00003   1.94881
   A22        1.80070  -0.00000   0.00000  -0.00001  -0.00001   1.80069
   A23        1.84382   0.00000   0.00000   0.00003   0.00003   1.84385
   A24        1.96256  -0.00000   0.00000  -0.00001  -0.00001   1.96256
   A25        1.94878   0.00000   0.00000   0.00001   0.00001   1.94879
   A26        1.82040   0.00000   0.00000   0.00003   0.00003   1.82043
   A27        1.35751   0.00000   0.00000   0.00002   0.00002   1.35753
   A28        1.70864  -0.00000   0.00000  -0.00002  -0.00002   1.70862
   A29        1.48409   0.00000   0.00000   0.00002   0.00002   1.48410
   A30        1.50475   0.00000   0.00000   0.00003   0.00003   1.50478
   A31        1.77517   0.00000   0.00000   0.00002   0.00002   1.77519
   A32        1.49747   0.00000   0.00000   0.00002   0.00002   1.49749
   A33        2.27025   0.00000   0.00000   0.00000   0.00000   2.27025
   A34        2.13827  -0.00000   0.00000  -0.00002  -0.00002   2.13825
   A35        1.87462   0.00000   0.00000   0.00002   0.00002   1.87464
   A36        2.27025   0.00000   0.00000   0.00001   0.00001   2.27026
   A37        1.87462   0.00001   0.00000   0.00002   0.00002   1.87464
   A38        2.13827  -0.00001   0.00000  -0.00003  -0.00003   2.13824
   A39        1.90472  -0.00000   0.00000   0.00000   0.00000   1.90472
   A40        2.21173  -0.00000   0.00000  -0.00001  -0.00001   2.21172
   A41        2.16660   0.00000   0.00000   0.00001   0.00001   2.16660
   A42        1.88941  -0.00000   0.00000   0.00000   0.00000   1.88941
   A43        2.26507  -0.00001   0.00000  -0.00003  -0.00003   2.26504
   A44        2.12870   0.00001   0.00000   0.00003   0.00003   2.12873
   A45        1.89670  -0.00001   0.00000  -0.00003  -0.00003   1.89666
    D1        0.20806  -0.00000   0.00000   0.00001   0.00001   0.20807
    D2       -1.62498   0.00000   0.00000   0.00006   0.00006  -1.62493
    D3        2.28106   0.00000   0.00000   0.00008   0.00008   2.28114
    D4        1.61291   0.00000   0.00000   0.00000   0.00000   1.61292
    D5       -1.53929   0.00000   0.00000   0.00005   0.00005  -1.53924
    D6       -3.12624  -0.00000   0.00000  -0.00009  -0.00009  -3.12633
    D7        0.00474  -0.00000   0.00000  -0.00004  -0.00004   0.00470
    D8        0.01308  -0.00000   0.00000  -0.00009  -0.00009   0.01298
    D9       -3.13913  -0.00000   0.00000  -0.00005  -0.00005  -3.13917
   D10        2.08612  -0.00000   0.00000   0.00000   0.00000   2.08612
   D11       -1.05811  -0.00000   0.00000   0.00003   0.00003  -1.05808
   D12       -0.00015   0.00000   0.00000   0.00005   0.00005  -0.00010
   D13        3.13881   0.00000   0.00000   0.00007   0.00007   3.13888
   D14       -3.13923   0.00000   0.00000   0.00005   0.00005  -3.13918
   D15       -0.00027   0.00000   0.00000   0.00008   0.00008  -0.00019
   D16       -0.00896  -0.00000   0.00000  -0.00007  -0.00007  -0.00903
   D17        3.13228  -0.00000   0.00000  -0.00003  -0.00003   3.13225
   D18       -3.13317  -0.00000   0.00000  -0.00002  -0.00002  -3.13319
   D19        0.00807   0.00000   0.00000   0.00002   0.00002   0.00809
   D20        2.13247  -0.00000   0.00000   0.00004   0.00004   2.13251
   D21       -2.08158   0.00000   0.00000   0.00006   0.00006  -2.08153
   D22        0.01366   0.00000   0.00000   0.00008   0.00008   0.01374
   D23       -1.02596  -0.00000   0.00000  -0.00001  -0.00001  -1.02597
   D24        1.04318   0.00000   0.00000   0.00001   0.00001   1.04319
   D25        3.13842   0.00000   0.00000   0.00003   0.00003   3.13846
   D26        3.14102   0.00000   0.00000   0.00005   0.00005   3.14108
   D27       -0.00022   0.00000   0.00000   0.00001   0.00001  -0.00021
   D28       -1.74880   0.00000   0.00000   0.00004   0.00004  -1.74876
   D29        1.39314   0.00000   0.00000  -0.00000  -0.00000   1.39314
   D30       -0.00007   0.00000   0.00000   0.00004   0.00004  -0.00003
   D31       -3.14131  -0.00000   0.00000  -0.00001  -0.00001  -3.14131
   D32        1.75081   0.00000   0.00000   0.00003   0.00003   1.75084
   D33       -1.39138   0.00000   0.00000   0.00005   0.00005  -1.39132
   D34       -2.76365   0.00000   0.00000  -0.00001  -0.00001  -2.76365
   D35        1.25378  -0.00000   0.00000  -0.00001  -0.00001   1.25377
   D36       -0.62874  -0.00000   0.00000  -0.00003  -0.00003  -0.62877
   D37        1.59157   0.00000   0.00000  -0.00002  -0.00002   1.59155
   D38       -0.67419  -0.00000   0.00000  -0.00002  -0.00002  -0.67421
   D39       -2.55671  -0.00000   0.00000  -0.00003  -0.00003  -2.55674
   D40        0.00906   0.00000   0.00000   0.00002   0.00002   0.00907
   D41        3.13332   0.00000   0.00000  -0.00001  -0.00001   3.13331
   D42       -3.13202  -0.00000   0.00000  -0.00000  -0.00000  -3.13202
   D43       -0.00775  -0.00000   0.00000  -0.00003  -0.00003  -0.00779
   D44        1.74510   0.00000   0.00000   0.00004   0.00004   1.74515
   D45       -1.41382   0.00000   0.00000   0.00001   0.00001  -1.41380
   D46        1.39668  -0.00000   0.00000  -0.00000  -0.00000   1.39668
   D47       -1.74532   0.00000   0.00000   0.00005   0.00005  -1.74528
   D48       -0.60494   0.00000   0.00000  -0.00003  -0.00003  -0.60497
   D49        0.59571  -0.00000   0.00000  -0.00003  -0.00003   0.59568
   D50       -0.82048   0.00000   0.00000  -0.00000  -0.00000  -0.82049
   D51       -2.95029  -0.00000   0.00000  -0.00003  -0.00003  -2.95032
   D52        1.20309  -0.00000   0.00000  -0.00005  -0.00005   1.20304
   D53       -0.01370  -0.00000   0.00000  -0.00006  -0.00006  -0.01376
   D54       -3.13852  -0.00000   0.00000  -0.00003  -0.00003  -3.13854
   D55       -2.13253   0.00000   0.00000   0.00002   0.00002  -2.13252
   D56        1.02584   0.00000   0.00000   0.00005   0.00005   1.02588
   D57        2.08154   0.00000   0.00000  -0.00002  -0.00002   2.08152
   D58       -1.04328   0.00000   0.00000   0.00001   0.00001  -1.04327
   D59       -1.73586  -0.00000   0.00000   0.00001   0.00001  -1.73585
   D60        1.41774  -0.00000   0.00000  -0.00004  -0.00004   1.41770
   D61       -1.47846  -0.00000   0.00000  -0.00007  -0.00007  -1.47853
   D62        1.66552  -0.00000   0.00000  -0.00009  -0.00009   1.66543
   D63       -1.56186  -0.00000   0.00000  -0.00007  -0.00007  -1.56193
   D64        1.58212  -0.00000   0.00000  -0.00009  -0.00009   1.58203
   D65        3.12661  -0.00000   0.00000  -0.00006  -0.00006   3.12656
   D66       -0.01259  -0.00000   0.00000  -0.00008  -0.00008  -0.01267
   D67       -0.00449  -0.00000   0.00000  -0.00003  -0.00003  -0.00453
   D68        3.13949  -0.00000   0.00000  -0.00006  -0.00006   3.13943
   D69        1.46634   0.00000   0.00000   0.00003   0.00003   1.46638
   D70        1.76967   0.00000   0.00000   0.00004   0.00004   1.76971
   D71       -3.12460  -0.00000   0.00000   0.00003   0.00003  -3.12457
   D72        0.00748  -0.00000   0.00000   0.00001   0.00001   0.00748
   D73       -0.00756   0.00000   0.00000   0.00002   0.00002  -0.00754
   D74        3.12440   0.00000   0.00000   0.00006   0.00006   3.12446
         Item               Value     Threshold  Converged?
 Maximum Force            0.000011     0.000015     YES
 RMS     Force            0.000002     0.000010     YES
 Maximum Displacement     0.000255     0.000060     NO 
 RMS     Displacement     0.000044     0.000040     NO 
 Predicted change in Energy=-4.280050D-09
 GradGradGradGradGradGradGradGradGradGradGradGradGradGradGradGradGradGrad

                          Input orientation:                          
 ---------------------------------------------------------------------
 Center     Atomic      Atomic             Coordinates (Angstroms)
 Number     Number       Type             X           Y           Z
 ---------------------------------------------------------------------
      1          6           0       -1.454591   -1.061659    0.665951
      2          6           0        0.240549    2.266391    1.176510
      3          6           0        1.286563    1.538605   -0.728820
      4          6           0        1.282907    1.539369    0.735358
      5          1           0        2.018228    1.029214   -1.339992
      6          1           0        2.011381    1.030480    1.350744
      7          6           0       -0.513950    2.810083   -0.001883
      8          1           0       -1.566419    2.500682   -0.004332
      9          1           0       -0.528070    3.907279   -0.002515
     10          1           0       -0.012393    2.455764   -2.206952
     11          1           0       -0.023323    2.458182    2.206033
     12          8           0        0.168137   -1.940039   -2.238489
     13          8           0        0.184659   -1.936101    2.230635
     14          6           0       -0.212740   -1.720790   -1.132741
     15          6           0       -0.204360   -1.718748    1.127345
     16          1           0       -2.196359   -0.679444   -1.350786
     17          6           0        0.246414    2.265126   -1.175933
     18          6           0       -1.459542   -1.062942   -0.663290
     19          1           0       -2.186186   -0.676691    1.358176
     20          8           0        0.511834   -2.092204   -0.005019
 ---------------------------------------------------------------------
                    Distance matrix (angstroms):
                    1          2          3          4          5
     1  C    0.000000
     2  C    3.769627   0.000000
     3  C    4.027492   2.292182   0.000000
     4  C    3.776780   1.345246   1.464182   0.000000
     5  H    4.522835   3.320171   1.080900   2.260096   0.000000
     6  H    4.105965   2.166490   2.260119   1.080899   2.690745
     7  C    4.039950   1.501159   2.320978   2.320977   3.372530
     8  H    3.626577   2.171270   3.096770   3.096761   4.098647
     9  H    5.098592   2.161802   3.070998   3.071009   4.068875
    10  H    4.765058   3.398184   2.171023   3.342868   2.628704
    11  H    4.099959   1.079968   3.342871   2.171023   4.334072
    12  O    3.441013   5.418627   3.953599   4.710919   3.612007
    13  O    2.428997   4.333041   4.695333   3.939657   4.990435
    14  C    2.282968   4.629873   3.610363   4.044180   3.547209
    15  C    1.485843   4.010199   4.034669   3.602908   4.310330
    16  H    2.182553   4.582978   4.175803   4.623896   4.547787
    17  C    4.165748   2.352450   1.345233   2.292176   2.166499
    18  C    1.329251   4.166489   3.783310   4.031038   4.114599
    19  H    1.078242   3.818871   4.617692   4.163344   5.278951
    20  O    2.319278   4.524043   3.782443   3.785636   3.714112
                    6          7          8          9         10
     6  H    0.000000
     7  C    3.372518   0.000000
     8  H    4.098583   1.097008   0.000000
     9  H    4.068918   1.097288   1.748339   0.000000
    10  H    4.334085   2.288979   2.696024   2.689304   0.000000
    11  H    2.628664   2.288983   2.696047   2.689300   4.412999
    12  O    5.010402   5.294460   5.264993   6.298843   4.399622
    13  O    3.593289   5.291357   5.267486   6.296034   6.246558
    14  C    4.322487   4.679570   4.574558   5.749088   4.317138
    15  C    3.538032   4.677746   4.575969   5.747483   5.346114
    16  H    5.284617   4.102052   3.510408   5.063502   3.915643
    17  C    3.320174   1.501174   2.171290   2.161805   1.079965
    18  C    4.526152   4.041277   3.625612   5.099741   4.105901
    19  H    4.531451   4.099235   3.512299   5.060989   5.219941
    20  O    3.719932   5.008459   5.041205   6.088942   5.080093
                   11         12         13         14         15
    11  H    0.000000
    12  O    6.255781   0.000000
    13  O    4.399272   4.469156   0.000000
    14  C    5.352299   1.189881   3.393608   0.000000
    15  C    4.317765   3.393606   1.189885   2.260102   0.000000
    16  H    5.217063   2.822757   4.480514   2.250931   3.345048
    17  C    3.398194   4.338038   5.409143   4.012508   4.623801
    18  C    4.763828   2.428969   3.441018   1.485821   2.282966
    19  H    3.901829   4.480501   2.822801   3.345041   2.250955
    20  O    5.087354   2.264877   2.264853   1.390939   1.390917
                   16         17         18         19         20
    16  H    0.000000
    17  C    3.829909   0.000000
    18  C    1.078249   3.774802   0.000000
    19  H    2.708982   4.581871   2.182550   0.000000
    20  O    3.337857   4.519714   2.319272   3.337857   0.000000
 Stoichiometry    C9H8O3
 Framework group  C1[X(C9H8O3)]
 Deg. of freedom    54
 Full point group                 C1      NOp   1
 Largest Abelian subgroup         C1      NOp   1
 Largest concise Abelian subgroup C1      NOp   1
                         Standard orientation:                         
 ---------------------------------------------------------------------
 Center     Atomic      Atomic             Coordinates (Angstroms)
 Number     Number       Type             X           Y           Z
 ---------------------------------------------------------------------
      1          6           0        1.157168    0.664640    1.319080
      2          6           0       -2.357773    1.171919    0.054983
      3          6           0       -1.762130   -0.727936   -1.080736
      4          6           0       -1.765724    0.736213   -1.071660
      5          1           0       -1.346795   -1.335286   -1.872549
      6          1           0       -1.353247    1.355400   -1.855761
      7          6           0       -2.800261   -0.010449    0.867195
      8          1           0       -2.361754   -0.015588    1.872736
      9          1           0       -3.887087   -0.014078    1.018310
     10          1           0       -2.506441   -2.212866    0.317235
     11          1           0       -2.517400    2.200035    0.344515
     12          8           0        1.832400   -2.231982   -0.411300
     13          8           0        1.816377    2.237145   -0.410862
     14          6           0        1.659982   -1.128107   -0.001971
     15          6           0        1.651825    1.131980   -0.001767
     16          1           0        0.875185   -1.355588    2.095418
     17          6           0       -2.351960   -1.180479    0.040405
     18          6           0        1.162050   -0.664601    1.318972
     19          1           0        0.865090    1.353376    2.095572
     20          8           0        1.935397    0.003027   -0.763149
 ---------------------------------------------------------------------
 Rotational constants (GHZ):           1.3365573           0.7037511           0.5819499
 Standard basis: def2TZVP (5D, 7F)
 There are   480 symmetry adapted cartesian basis functions of A   symmetry.
 There are   420 symmetry adapted basis functions of A   symmetry.
   420 basis functions,   676 primitive gaussians,   480 cartesian basis functions
    43 alpha electrons       43 beta electrons
       nuclear repulsion energy       652.5219300296 Hartrees.
 NAtoms=   20 NActive=   20 NUniq=   20 SFac= 1.00D+00 NAtFMM=   60 NAOKFM=F Big=F
 Integral buffers will be    131072 words long.
 Raffenetti 2 integral format.
 Two-electron integral symmetry is turned on.
 One-electron integrals computed using PRISM.
   1 Symmetry operations used in ECPInt.
 ECPInt:  NShTT=   13530 NPrTT=   41904 LenC2=   12940 LenP2D=   30399.
 LDataN:  DoStor=T MaxTD1= 6 Len=  172
 NBasis=   420 RedAO= T EigKep=  4.26D-05  NBF=   420
 NBsUse=   420 1.00D-06 EigRej= -1.00D+00 NBFU=   420
 Initial guess from the checkpoint file:  "checkpoint.chk"
 B after Tr=    -0.000000   -0.000000    0.000000
         Rot=    1.000000    0.000003   -0.000001    0.000013 Ang=   0.00 deg.
 Requested convergence on RMS density matrix=1.00D-08 within 128 cycles.
 Requested convergence on MAX density matrix=1.00D-06.
 Requested convergence on             energy=1.00D-06.
 No special actions if energy rises.
 SCF Done:  E(RB3LYP) =  -573.628843969     A.U. after    5 cycles
            NFock=  5  Conv=0.42D-08     -V/T= 2.0047
   1 Symmetry operations used in ECPInt.
 ECPInt:  NShTT=   13530 NPrTT=   41904 LenC2=   12940 LenP2D=   30399.
 LDataN:  DoStor=T MaxTD1= 7 Len=  274
 Calling FoFJK, ICntrl=      2127 FMM=F ISym2X=0 I1Cent= 0 IOpClX= 0 NMat=1 NMatS=1 NMatT=0.
 ***** Axes restored to original set *****
 -------------------------------------------------------------------
 Center     Atomic                   Forces (Hartrees/Bohr)
 Number     Number              X              Y              Z
 -------------------------------------------------------------------
      1        6           0.000002989   -0.000001664    0.000006041
      2        6           0.000002439    0.000002858    0.000001297
      3        6           0.000002592    0.000001329    0.000000781
      4        6          -0.000001135    0.000000447   -0.000000181
      5        1          -0.000004286   -0.000004209   -0.000001041
      6        1           0.000000755    0.000001080    0.000000328
      7        6          -0.000003951    0.000004023   -0.000001894
      8        1           0.000002735   -0.000004415   -0.000001476
      9        1          -0.000000391   -0.000001664   -0.000000191
     10        1           0.000000339    0.000000011   -0.000000287
     11        1          -0.000000489    0.000000372    0.000000045
     12        8           0.000004224    0.000002361   -0.000004149
     13        8           0.000002155    0.000000070    0.000003396
     14        6          -0.000000965    0.000008182    0.000004165
     15        6          -0.000006051    0.000002843    0.000000116
     16        1           0.000000771    0.000002540    0.000001312
     17        6          -0.000001251   -0.000000584   -0.000001207
     18        6           0.000001438   -0.000004181   -0.000006195
     19        1          -0.000001955   -0.000006472    0.000000618
     20        8           0.000000035   -0.000002927   -0.000001476
 -------------------------------------------------------------------
 Cartesian Forces:  Max     0.000008182 RMS     0.000002873

 GradGradGradGradGradGradGradGradGradGradGradGradGradGradGradGradGradGrad
 Berny optimization.
 Using GEDIIS/GDIIS optimizer.
 FormGI is forming the generalized inverse of G from B-inverse, IUseBI=4.
 Internal  Forces:  Max     0.000005002 RMS     0.000001450
 Search for a local minimum.
 Step number   2 out of a maximum of  120
 All quantities printed in internal units (Hartrees-Bohrs-Radians)
 Mixed Optimization -- En-DIIS/RFO-DIIS
 Swapping is turned off.
 Update second derivatives using D2CorX and points    1    2
 DE= -6.26D-09 DEPred=-4.28D-09 R= 1.46D+00
 Trust test= 1.46D+00 RLast= 5.52D-04 DXMaxT set to 3.00D-01
 ITU=  0  0
     Eigenvalues ---    0.00513   0.00714   0.01082   0.01331   0.01562
     Eigenvalues ---    0.01689   0.01804   0.02048   0.02293   0.02468
     Eigenvalues ---    0.02859   0.02941   0.03276   0.03669   0.04245
     Eigenvalues ---    0.04376   0.04629   0.06130   0.06438   0.07744
     Eigenvalues ---    0.07902   0.08182   0.09850   0.11387   0.12746
     Eigenvalues ---    0.14222   0.14569   0.15937   0.15996   0.16002
     Eigenvalues ---    0.17724   0.19496   0.21329   0.23415   0.27296
     Eigenvalues ---    0.29033   0.31447   0.32134   0.33095   0.33848
     Eigenvalues ---    0.34049   0.34989   0.35340   0.35998   0.36044
     Eigenvalues ---    0.36207   0.36228   0.40484   0.45045   0.48113
     Eigenvalues ---    0.53739   0.54736   1.05539   1.06767
 En-DIIS/RFO-DIIS/Sim-DIIS IScMMF=       -3 using points:     2    1
 RFO step:  Lambda=-1.54635754D-08.
 DIIS inversion failure, remove point   2.
 Use linear search instead of GDIIS.
 RFO step:  Lambda=-2.82379879D-08 EMin= 5.13282851D-03
 Quartic linear search produced a step of  2.00000.
 Iteration  1 RMS(Cart)=  0.00025120 RMS(Int)=  0.00000003
 Iteration  2 RMS(Cart)=  0.00000004 RMS(Int)=  0.00000001
 Variable       Old X    -DE/DX   Delta X   Delta X   Delta X     New X
                                 (Linear)    (Quad)   (Total)
    R1        6.85324   0.00000   0.00031   0.00047   0.00077   6.85401
    R2        2.80784  -0.00000  -0.00004  -0.00004  -0.00008   2.80776
    R3        2.51192   0.00000  -0.00000   0.00002   0.00002   2.51194
    R4        2.03758  -0.00000  -0.00000  -0.00000  -0.00000   2.03758
    R5        2.54215  -0.00000  -0.00001  -0.00000  -0.00001   2.54214
    R6        2.83678   0.00000   0.00001   0.00001   0.00003   2.83681
    R7        2.04084   0.00000  -0.00000   0.00000  -0.00000   2.04084
    R8        2.76690   0.00000  -0.00002   0.00000  -0.00002   2.76688
    R9        2.04261  -0.00000   0.00001   0.00000   0.00001   2.04262
   R10        6.82260  -0.00000  -0.00023  -0.00048  -0.00072   6.82188
   R11        2.54212  -0.00000  -0.00000   0.00000  -0.00000   2.54212
   R12        2.04260   0.00000   0.00000   0.00000   0.00001   2.04261
   R13        6.82570  -0.00000  -0.00042  -0.00086  -0.00128   6.82442
   R14        6.70325  -0.00000  -0.00034  -0.00070  -0.00103   6.70222
   R15        6.79033   0.00000   0.00026   0.00053   0.00079   6.79113
   R16        2.07304  -0.00000   0.00001   0.00000   0.00001   2.07306
   R17        2.07357  -0.00000  -0.00001  -0.00001  -0.00002   2.07355
   R18        2.83681  -0.00000   0.00001   0.00001   0.00001   2.83682
   R19        2.04084   0.00000  -0.00001   0.00000  -0.00000   2.04083
   R20        2.24855   0.00001   0.00002   0.00001   0.00003   2.24858
   R21        2.24856   0.00000   0.00002   0.00001   0.00003   2.24859
   R22        2.80780  -0.00000  -0.00003  -0.00003  -0.00007   2.80773
   R23        2.62849   0.00000   0.00001   0.00001   0.00002   2.62852
   R24        2.62845   0.00000   0.00002   0.00002   0.00005   2.62850
   R25        2.03760  -0.00000  -0.00000  -0.00000  -0.00001   2.03759
    A1        2.11500  -0.00000  -0.00005  -0.00006  -0.00011   2.11489
    A2        1.38575  -0.00000  -0.00013  -0.00021  -0.00034   1.38541
    A3        1.31504   0.00000   0.00014   0.00021   0.00036   1.31540
    A4        1.88939   0.00000  -0.00002   0.00001  -0.00001   1.88938
    A5        2.12875  -0.00000   0.00006   0.00003   0.00009   2.12883
    A6        2.26504  -0.00000  -0.00004  -0.00004  -0.00008   2.26497
    A7        1.90473  -0.00000   0.00001   0.00000   0.00001   1.90473
    A8        2.21169   0.00000  -0.00001   0.00000  -0.00001   2.21168
    A9        2.16663   0.00000  -0.00000   0.00000   0.00000   2.16663
   A10        2.17410   0.00000  -0.00001  -0.00000  -0.00001   2.17409
   A11        1.68234   0.00000   0.00006   0.00013   0.00019   1.68253
   A12        1.90726   0.00000   0.00001   0.00001   0.00001   1.90728
   A13        2.20182  -0.00000   0.00000  -0.00000  -0.00000   2.20182
   A14        1.70045  -0.00000  -0.00003  -0.00004  -0.00007   1.70038
   A15        1.90726  -0.00000  -0.00000   0.00000  -0.00000   1.90726
   A16        2.20179   0.00000   0.00000  -0.00000   0.00000   2.20179
   A17        2.17414   0.00000  -0.00000   0.00000  -0.00000   2.17414
   A18        1.75315   0.00000   0.00005   0.00010   0.00016   1.75330
   A19        1.75736   0.00000  -0.00001  -0.00001  -0.00002   1.75734
   A20        1.96255  -0.00000  -0.00011  -0.00002  -0.00012   1.96243
   A21        1.94881  -0.00000   0.00006  -0.00001   0.00005   1.94886
   A22        1.80069   0.00000  -0.00002  -0.00000  -0.00002   1.80067
   A23        1.84385   0.00000   0.00005   0.00002   0.00007   1.84392
   A24        1.96256  -0.00000  -0.00001   0.00003   0.00002   1.96257
   A25        1.94879  -0.00000   0.00002  -0.00002  -0.00000   1.94879
   A26        1.82043   0.00000   0.00006   0.00009   0.00014   1.82057
   A27        1.35753   0.00000   0.00004   0.00001   0.00006   1.35759
   A28        1.70862  -0.00000  -0.00005  -0.00009  -0.00014   1.70848
   A29        1.48410   0.00000   0.00003   0.00006   0.00010   1.48420
   A30        1.50478   0.00000   0.00006   0.00010   0.00016   1.50494
   A31        1.77519   0.00000   0.00005   0.00010   0.00014   1.77534
   A32        1.49749   0.00000   0.00004   0.00007   0.00011   1.49759
   A33        2.27025   0.00000   0.00001   0.00000   0.00001   2.27026
   A34        2.13825   0.00000  -0.00004   0.00001  -0.00003   2.13822
   A35        1.87464  -0.00000   0.00003  -0.00001   0.00002   1.87466
   A36        2.27026   0.00000   0.00002   0.00002   0.00003   2.27029
   A37        1.87464  -0.00000   0.00005  -0.00002   0.00003   1.87467
   A38        2.13824   0.00000  -0.00006   0.00000  -0.00006   2.13818
   A39        1.90472  -0.00000   0.00000  -0.00000  -0.00000   1.90472
   A40        2.21172  -0.00000  -0.00002  -0.00001  -0.00003   2.21169
   A41        2.16660   0.00000   0.00002   0.00001   0.00003   2.16663
   A42        1.88941  -0.00000   0.00000   0.00001   0.00001   1.88943
   A43        2.26504  -0.00000  -0.00006  -0.00004  -0.00011   2.26493
   A44        2.12873   0.00000   0.00006   0.00003   0.00009   2.12883
   A45        1.89666   0.00000  -0.00007   0.00001  -0.00005   1.89661
    D1        0.20807  -0.00000   0.00001   0.00010   0.00011   0.20818
    D2       -1.62493  -0.00000   0.00011   0.00021   0.00032  -1.62461
    D3        2.28114   0.00000   0.00016   0.00024   0.00040   2.28154
    D4        1.61292   0.00000   0.00001   0.00005   0.00006   1.61297
    D5       -1.53924   0.00000   0.00010   0.00016   0.00026  -1.53899
    D6       -3.12633  -0.00000  -0.00018  -0.00022  -0.00040  -3.12673
    D7        0.00470  -0.00000  -0.00008  -0.00011  -0.00020   0.00450
    D8        0.01298  -0.00000  -0.00019  -0.00021  -0.00040   0.01259
    D9       -3.13917  -0.00000  -0.00010  -0.00010  -0.00020  -3.13937
   D10        2.08612  -0.00000   0.00001  -0.00000   0.00001   2.08613
   D11       -1.05808  -0.00000   0.00006   0.00006   0.00012  -1.05796
   D12       -0.00010   0.00000   0.00009   0.00012   0.00022   0.00012
   D13        3.13888   0.00000   0.00014   0.00019   0.00033   3.13921
   D14       -3.13918   0.00000   0.00011   0.00011   0.00021  -3.13896
   D15       -0.00019   0.00000   0.00016   0.00017   0.00033   0.00013
   D16       -0.00903   0.00000  -0.00015   0.00019   0.00004  -0.00899
   D17        3.13225   0.00000  -0.00006   0.00006   0.00001   3.13226
   D18       -3.13319   0.00000  -0.00005   0.00007   0.00002  -3.13317
   D19        0.00809   0.00000   0.00004  -0.00006  -0.00002   0.00807
   D20        2.13251  -0.00000   0.00008  -0.00015  -0.00007   2.13243
   D21       -2.08153  -0.00000   0.00011  -0.00014  -0.00003  -2.08156
   D22        0.01374  -0.00000   0.00016  -0.00017  -0.00002   0.01373
   D23       -1.02597  -0.00000  -0.00002  -0.00003  -0.00005  -1.02602
   D24        1.04319   0.00000   0.00002  -0.00002  -0.00001   1.04318
   D25        3.13846  -0.00000   0.00006  -0.00005   0.00001   3.13846
   D26        3.14108   0.00000   0.00011  -0.00008   0.00002   3.14110
   D27       -0.00021  -0.00000   0.00002   0.00004   0.00006  -0.00015
   D28       -1.74876   0.00000   0.00008  -0.00014  -0.00006  -1.74882
   D29        1.39314   0.00000  -0.00000  -0.00002  -0.00002   1.39312
   D30       -0.00003  -0.00000   0.00007  -0.00013  -0.00005  -0.00008
   D31       -3.14131  -0.00000  -0.00001  -0.00001  -0.00002  -3.14133
   D32        1.75084   0.00000   0.00007   0.00014   0.00020   1.75104
   D33       -1.39132   0.00000   0.00011   0.00019   0.00029  -1.39103
   D34       -2.76365  -0.00000  -0.00002  -0.00007  -0.00009  -2.76374
   D35        1.25377  -0.00000  -0.00003  -0.00008  -0.00011   1.25366
   D36       -0.62877   0.00000  -0.00005  -0.00005  -0.00010  -0.62887
   D37        1.59155  -0.00000  -0.00003  -0.00010  -0.00013   1.59143
   D38       -0.67421  -0.00000  -0.00004  -0.00010  -0.00014  -0.67435
   D39       -2.55674  -0.00000  -0.00006  -0.00007  -0.00014  -2.55688
   D40        0.00907  -0.00000   0.00003   0.00001   0.00004   0.00912
   D41        3.13331   0.00000  -0.00003  -0.00003  -0.00006   3.13325
   D42       -3.13202  -0.00000  -0.00000  -0.00003  -0.00004  -3.13206
   D43       -0.00779  -0.00000  -0.00006  -0.00008  -0.00014  -0.00793
   D44        1.74515   0.00000   0.00009   0.00014   0.00022   1.74537
   D45       -1.41380   0.00000   0.00003   0.00010   0.00012  -1.41368
   D46        1.39668   0.00000  -0.00001   0.00032   0.00031   1.39698
   D47       -1.74528   0.00000   0.00009   0.00017   0.00027  -1.74501
   D48       -0.60497   0.00000  -0.00005  -0.00013  -0.00019  -0.60516
   D49        0.59568  -0.00000  -0.00007  -0.00010  -0.00017   0.59551
   D50       -0.82049  -0.00000  -0.00000  -0.00020  -0.00020  -0.82069
   D51       -2.95032  -0.00000  -0.00005  -0.00019  -0.00024  -2.95056
   D52        1.20304  -0.00000  -0.00010  -0.00019  -0.00029   1.20274
   D53       -0.01376   0.00000  -0.00011   0.00009  -0.00002  -0.01378
   D54       -3.13854   0.00000  -0.00005   0.00013   0.00008  -3.13846
   D55       -2.13252   0.00000   0.00003   0.00010   0.00013  -2.13239
   D56        1.02588   0.00000   0.00009   0.00014   0.00023   1.02611
   D57        2.08152   0.00000  -0.00004   0.00007   0.00003   2.08155
   D58       -1.04327  -0.00000   0.00002   0.00011   0.00013  -1.04314
   D59       -1.73585  -0.00000   0.00002   0.00000   0.00002  -1.73583
   D60        1.41770  -0.00000  -0.00009  -0.00012  -0.00021   1.41749
   D61       -1.47853  -0.00000  -0.00014  -0.00021  -0.00036  -1.47888
   D62        1.66543  -0.00000  -0.00019  -0.00027  -0.00046   1.66497
   D63       -1.56193  -0.00000  -0.00013  -0.00019  -0.00033  -1.56225
   D64        1.58203  -0.00000  -0.00018  -0.00025  -0.00043   1.58160
   D65        3.12656  -0.00000  -0.00011  -0.00015  -0.00026   3.12630
   D66       -0.01267  -0.00000  -0.00016  -0.00021  -0.00036  -0.01304
   D67       -0.00453   0.00000  -0.00007  -0.00009  -0.00016  -0.00469
   D68        3.13943  -0.00000  -0.00012  -0.00015  -0.00026   3.13916
   D69        1.46638   0.00000   0.00007   0.00012   0.00018   1.46656
   D70        1.76971   0.00000   0.00008   0.00014   0.00022   1.76993
   D71       -3.12457  -0.00000   0.00005   0.00007   0.00012  -3.12445
   D72        0.00748  -0.00000   0.00002   0.00002   0.00003   0.00752
   D73       -0.00754   0.00000   0.00004   0.00006   0.00009  -0.00745
   D74        3.12446   0.00000   0.00012   0.00015   0.00027   3.12474
         Item               Value     Threshold  Converged?
 Maximum Force            0.000005     0.000015     YES
 RMS     Force            0.000001     0.000010     YES
 Maximum Displacement     0.001425     0.000060     NO 
 RMS     Displacement     0.000251     0.000040     NO 
 Predicted change in Energy=-3.260587D-09
 GradGradGradGradGradGradGradGradGradGradGradGradGradGradGradGradGradGrad

                          Input orientation:                          
 ---------------------------------------------------------------------
 Center     Atomic      Atomic             Coordinates (Angstroms)
 Number     Number       Type             X           Y           Z
 ---------------------------------------------------------------------
      1          6           0       -1.454716   -1.062043    0.666039
      2          6           0        0.240635    2.266666    1.176470
      3          6           0        1.286515    1.538498   -0.728769
      4          6           0        1.282918    1.539497    0.735396
      5          1           0        2.018112    1.028929   -1.339884
      6          1           0        2.011398    1.030675    1.350836
      7          6           0       -0.513917    2.810187   -0.001985
      8          1           0       -1.566375    2.500723   -0.004229
      9          1           0       -0.528025    3.907373   -0.002853
     10          1           0       -0.012412    2.455462   -2.207021
     11          1           0       -0.023166    2.458652    2.205974
     12          8           0        0.168228   -1.939578   -2.238541
     13          8           0        0.184671   -1.936455    2.230586
     14          6           0       -0.212680   -1.720521   -1.132748
     15          6           0       -0.204454   -1.719057    1.127326
     16          1           0       -2.196222   -0.678935   -1.350573
     17          6           0        0.246368    2.264966   -1.175972
     18          6           0       -1.459489   -1.062829   -0.663212
     19          1           0       -2.186518   -0.677445    1.358247
     20          8           0        0.511870   -2.092208   -0.005087
 ---------------------------------------------------------------------
                    Distance matrix (angstroms):
                    1          2          3          4          5
     1  C    0.000000
     2  C    3.770286   0.000000
     3  C    4.027735   2.292167   0.000000
     4  C    3.777228   1.345242   1.464170   0.000000
     5  H    4.522878   3.320159   1.080906   2.260084   0.000000
     6  H    4.106380   2.166490   2.260110   1.080902   2.690729
     7  C    4.040485   1.501173   2.320984   2.320991   3.372541
     8  H    3.626986   2.171202   3.096743   3.096687   4.098622
     9  H    5.099144   2.161842   3.071006   3.071053   4.068895
    10  H    4.765245   3.398189   2.171005   3.342857   2.628679
    11  H    4.100735   1.079967   3.342853   2.171014   4.334055
    12  O    3.441017   5.418490   3.953099   4.710711   3.611328
    13  O    2.428990   4.333649   4.695438   3.940048   4.990317
    14  C    2.282955   4.629864   3.609984   4.044068   3.546662
    15  C    1.485801   4.010799   4.034816   3.603340   4.310262
    16  H    2.182504   4.582661   4.175297   4.623539   4.547255
    17  C    4.166015   2.352450   1.345233   2.292176   2.166502
    18  C    1.329259   4.166580   3.783086   4.031005   4.114250
    19  H    1.078240   3.819935   4.618224   4.164103   5.279256
    20  O    2.319291   4.524316   3.782303   3.785777   3.713752
                    6          7          8          9         10
     6  H    0.000000
     7  C    3.372537   0.000000
     8  H    4.098500   1.097014   0.000000
     9  H    4.068972   1.097277   1.748382   0.000000
    10  H    4.334071   2.289001   2.696135   2.689286   0.000000
    11  H    2.628655   2.288995   2.695972   2.689348   4.413010
    12  O    5.010320   5.294127   5.264720   6.298406   4.398864
    13  O    3.593709   5.291786   5.267742   6.296547   6.246610
    14  C    4.322475   4.679389   4.574380   5.748852   4.316596
    15  C    3.538500   4.678158   4.576220   5.747932   5.346154
    16  H    5.284358   4.101562   3.509925   5.062949   3.914968
    17  C    3.320175   1.501182   2.171313   2.161804   1.079962
    18  C    4.526169   4.041235   3.625546   5.099668   4.105576
    19  H    4.532132   4.100171   3.513072   5.061991   5.220439
    20  O    3.720149   5.008566   5.041242   6.089037   5.079832
                   11         12         13         14         15
    11  H    0.000000
    12  O    6.255779   0.000000
    13  O    4.400087   4.469158   0.000000
    14  C    5.352426   1.189897   3.393601   0.000000
    15  C    4.318518   3.393609   1.189900   2.260089   0.000000
    16  H    5.216862   2.822824   4.480480   2.250953   3.344992
    17  C    3.398194   4.337436   5.409286   4.012069   4.623944
    18  C    4.764040   2.428954   3.441010   1.485785   2.282930
    19  H    3.903055   4.480479   2.822874   3.345011   2.250967
    20  O    5.087768   2.264885   2.264851   1.390951   1.390942
                   16         17         18         19         20
    16  H    0.000000
    17  C    3.829267   0.000000
    18  C    1.078246   3.774532   0.000000
    19  H    2.708837   4.582465   2.182518   0.000000
    20  O    3.337879   4.519561   2.319269   3.337893   0.000000
 Stoichiometry    C9H8O3
 Framework group  C1[X(C9H8O3)]
 Deg. of freedom    54
 Full point group                 C1      NOp   1
 Largest Abelian subgroup         C1      NOp   1
 Largest concise Abelian subgroup C1      NOp   1
                         Standard orientation:                         
 ---------------------------------------------------------------------
 Center     Atomic      Atomic             Coordinates (Angstroms)
 Number     Number       Type             X           Y           Z
 ---------------------------------------------------------------------
      1          6           0        1.157643    0.664646    1.319145
      2          6           0       -2.357938    1.172118    0.054938
      3          6           0       -1.762090   -0.727720   -1.080673
      4          6           0       -1.765783    0.736418   -1.071647
      5          1           0       -1.346634   -1.335062   -1.872436
      6          1           0       -1.353319    1.355607   -1.855756
      7          6           0       -2.800359   -0.010257    0.867201
      8          1           0       -2.361784   -0.015219    1.872720
      9          1           0       -3.887175   -0.014015    1.018307
     10          1           0       -2.506346   -2.212678    0.317270
     11          1           0       -2.517665    2.200234    0.344410
     12          8           0        1.831719   -2.232206   -0.411307
     13          8           0        1.816944    2.236927   -0.410955
     14          6           0        1.659603   -1.128265   -0.001985
     15          6           0        1.652258    1.131812   -0.001732
     16          1           0        0.874551   -1.355419    2.095366
     17          6           0       -2.351904   -1.180279    0.040470
     18          6           0        1.161880   -0.664606    1.318943
     19          1           0        0.866029    1.353405    2.095789
     20          8           0        1.935397    0.002772   -0.763192
 ---------------------------------------------------------------------
 Rotational constants (GHZ):           1.3365524           0.7037308           0.5819374
 Standard basis: def2TZVP (5D, 7F)
 There are   480 symmetry adapted cartesian basis functions of A   symmetry.
 There are   420 symmetry adapted basis functions of A   symmetry.
   420 basis functions,   676 primitive gaussians,   480 cartesian basis functions
    43 alpha electrons       43 beta electrons
       nuclear repulsion energy       652.5183529877 Hartrees.
 NAtoms=   20 NActive=   20 NUniq=   20 SFac= 1.00D+00 NAtFMM=   60 NAOKFM=F Big=F
 Integral buffers will be    131072 words long.
 Raffenetti 2 integral format.
 Two-electron integral symmetry is turned on.
 One-electron integrals computed using PRISM.
   1 Symmetry operations used in ECPInt.
 ECPInt:  NShTT=   13530 NPrTT=   41904 LenC2=   12940 LenP2D=   30399.
 LDataN:  DoStor=T MaxTD1= 6 Len=  172
 NBasis=   420 RedAO= T EigKep=  4.26D-05  NBF=   420
 NBsUse=   420 1.00D-06 EigRej= -1.00D+00 NBFU=   420
 Initial guess from the checkpoint file:  "checkpoint.chk"
 B after Tr=     0.000000   -0.000000    0.000000
         Rot=    1.000000    0.000009   -0.000007    0.000064 Ang=   0.01 deg.
 Requested convergence on RMS density matrix=1.00D-08 within 128 cycles.
 Requested convergence on MAX density matrix=1.00D-06.
 Requested convergence on             energy=1.00D-06.
 No special actions if energy rises.
 SCF Done:  E(RB3LYP) =  -573.628843979     A.U. after    6 cycles
            NFock=  6  Conv=0.94D-08     -V/T= 2.0047
   1 Symmetry operations used in ECPInt.
 ECPInt:  NShTT=   13530 NPrTT=   41904 LenC2=   12940 LenP2D=   30399.
 LDataN:  DoStor=T MaxTD1= 7 Len=  274
 Calling FoFJK, ICntrl=      2127 FMM=F ISym2X=0 I1Cent= 0 IOpClX= 0 NMat=1 NMatS=1 NMatT=0.
 ***** Axes restored to original set *****
 -------------------------------------------------------------------
 Center     Atomic                   Forces (Hartrees/Bohr)
 Number     Number              X              Y              Z
 -------------------------------------------------------------------
      1        6          -0.000010097   -0.000001481   -0.000012485
      2        6           0.000001735    0.000009768    0.000000431
      3        6           0.000002145   -0.000008247   -0.000007300
      4        6           0.000003655    0.000001842    0.000006366
      5        1          -0.000005542   -0.000000206    0.000000095
      6        1          -0.000001529    0.000001266   -0.000000944
      7        6          -0.000000273   -0.000013464    0.000003796
      8        1           0.000004276    0.000002424   -0.000007731
      9        1          -0.000003368    0.000001839    0.000002193
     10        1          -0.000003663   -0.000000293   -0.000001351
     11        1          -0.000002184    0.000000296    0.000000645
     12        8          -0.000003912    0.000011641    0.000015426
     13        8          -0.000015654   -0.000000308   -0.000014712
     14        6           0.000028137   -0.000011911   -0.000023933
     15        6           0.000038664   -0.000009053    0.000028776
     16        1          -0.000000203   -0.000008710   -0.000006750
     17        6           0.000001699    0.000003720    0.000000663
     18        6          -0.000012025    0.000012115    0.000011342
     19        1           0.000004567   -0.000000737    0.000006695
     20        8          -0.000026429    0.000009497   -0.000001223
 -------------------------------------------------------------------
 Cartesian Forces:  Max     0.000038664 RMS     0.000010858

 GradGradGradGradGradGradGradGradGradGradGradGradGradGradGradGradGradGrad
 Berny optimization.
 Using GEDIIS/GDIIS optimizer.
 FormGI is forming the generalized inverse of G from B-inverse, IUseBI=4.
 Internal  Forces:  Max     0.000019085 RMS     0.000003809
 Search for a local minimum.
 Step number   3 out of a maximum of  120
 All quantities printed in internal units (Hartrees-Bohrs-Radians)
 Mixed Optimization -- En-DIIS/RFO-DIIS
 Swapping is turned off.
 Update second derivatives using D2CorX and points    1    2    3
 DE= -1.08D-08 DEPred=-3.26D-09 R= 3.30D+00
 Trust test= 3.30D+00 RLast= 2.83D-03 DXMaxT set to 3.00D-01
 ITU=  0  0  0
     Eigenvalues ---    0.00257   0.00715   0.01083   0.01302   0.01559
     Eigenvalues ---    0.01693   0.01908   0.02037   0.02328   0.02555
     Eigenvalues ---    0.02868   0.02955   0.03301   0.03696   0.04244
     Eigenvalues ---    0.04393   0.04624   0.06127   0.06437   0.07742
     Eigenvalues ---    0.07893   0.08364   0.09849   0.11377   0.12771
     Eigenvalues ---    0.14235   0.14615   0.15993   0.15996   0.16370
     Eigenvalues ---    0.17780   0.19497   0.21330   0.24015   0.27549
     Eigenvalues ---    0.29489   0.31553   0.32917   0.33555   0.34014
     Eigenvalues ---    0.34163   0.35290   0.35871   0.35998   0.36159
     Eigenvalues ---    0.36209   0.37490   0.41439   0.45141   0.48114
     Eigenvalues ---    0.53799   0.54738   1.06523   1.10574
 En-DIIS/RFO-DIIS/Sim-DIIS IScMMF=       -3 using points:     3    2    1
 RFO step:  Lambda=-4.75727441D-09.
 DIIS inversion failure, remove point   3.
 RFO-DIIS uses    2 points instead of    3
 DidBck=F Rises=F RFO-DIIS coefs:    1.12527   -0.12527    0.00000
 Iteration  1 RMS(Cart)=  0.00004290 RMS(Int)=  0.00000000
 Iteration  2 RMS(Cart)=  0.00000000 RMS(Int)=  0.00000000
 Variable       Old X    -DE/DX   Delta X   Delta X   Delta X     New X
                                 (Linear)    (Quad)   (Total)
    R1        6.85401   0.00000   0.00010  -0.00003   0.00007   6.85408
    R2        2.80776   0.00001  -0.00001   0.00002   0.00001   2.80777
    R3        2.51194   0.00000   0.00000  -0.00000   0.00000   2.51194
    R4        2.03758   0.00000  -0.00000   0.00000   0.00000   2.03758
    R5        2.54214   0.00000  -0.00000   0.00000   0.00000   2.54214
    R6        2.83681  -0.00000   0.00000  -0.00001  -0.00000   2.83680
    R7        2.04084   0.00000  -0.00000   0.00000   0.00000   2.04084
    R8        2.76688   0.00001  -0.00000   0.00001   0.00001   2.76689
    R9        2.04262  -0.00000   0.00000  -0.00001  -0.00001   2.04261
   R10        6.82188  -0.00000  -0.00009  -0.00005  -0.00014   6.82175
   R11        2.54212   0.00000  -0.00000  -0.00000  -0.00000   2.54212
   R12        2.04261  -0.00000   0.00000  -0.00000  -0.00000   2.04261
   R13        6.82442  -0.00001  -0.00016  -0.00013  -0.00029   6.82413
   R14        6.70222  -0.00000  -0.00013  -0.00007  -0.00020   6.70202
   R15        6.79113   0.00000   0.00010   0.00012   0.00022   6.79135
   R16        2.07306  -0.00000   0.00000  -0.00001  -0.00001   2.07305
   R17        2.07355   0.00000  -0.00000   0.00001   0.00000   2.07356
   R18        2.83682  -0.00000   0.00000  -0.00001  -0.00001   2.83682
   R19        2.04083   0.00000  -0.00000   0.00000   0.00000   2.04083
   R20        2.24858  -0.00002   0.00000  -0.00001  -0.00001   2.24857
   R21        2.24859  -0.00002   0.00000  -0.00001  -0.00001   2.24858
   R22        2.80773   0.00001  -0.00001   0.00002   0.00002   2.80774
   R23        2.62852  -0.00001   0.00000  -0.00001  -0.00001   2.62851
   R24        2.62850  -0.00000   0.00001  -0.00001  -0.00000   2.62850
[...]
 ,-0.00021587,0.00006358,0.00009123,-0.02654555,-0.00776205,0.00160124,
 0.00101722,-0.00355684,-0.00393474,-0.00092584,0.00336433,-0.00425032,
 -0.00067734,-0.00183092,0.00047663,0.00067878,0.00197659,0.00042184,-0
 .00424060,-0.00158156,-0.04141361,0.00474616,0.00145902,0.04382150,0.0
 0004626,-0.00003976,-0.00001638,-0.00193382,0.01424944,0.00014298,-0.0
 0114032,0.00142652,0.00044223,-0.00094244,0.00142328,-0.00036672,-0.00
 138233,-0.00091088,-0.00011673,-0.00130518,-0.00083484,0.00006828,-0.0
 3279888,0.00508966,0.00005953,-0.00137925,-0.03165048,0.00079028,0.042
 32171,0.00001781,-0.00002110,-0.00002352,0.00119490,-0.00927064,0.0005
 9282,-0.00013042,-0.00033519,-0.00123068,-0.00036925,-0.00028838,0.001
 02144,0.00061161,0.00039143,0.00005832,0.00053061,0.00031781,-0.000024
 08,0.00032694,-0.29400976,0.00681066,-0.00143972,-0.01115560,0.0002812
 3,-0.00320701,0.32429417,-0.00006506,0.00001537,-0.00000217,-0.0010113
 4,0.02769750,0.00063929,0.00346919,0.00010287,-0.00383283,-0.00330721,
 -0.00021247,-0.00408141,0.00148720,0.00130949,0.00042540,-0.00161011,-
 0.00135046,0.00042124,0.00017887,0.00693217,-0.04009666,-0.00001745,-0
 .00051298,0.00079125,0.00005383,-0.00760300,0.04367304,-0.00007334,0.0
 0006140,-0.00001709,-0.00285057,0.00177051,0.00277153,0.00230906,0.001
 92440,-0.02304436,-0.00107059,0.00584210,-0.00133453,-0.00115500,-0.00
 286434,0.00077976,0.00053738,0.00001614,-0.00112664,0.00638793,-0.0058
 0829,0.01424809,0.00033546,-0.00061872,-0.00109837,0.00021262,0.000601
 83,-0.00000444,0.05518537,-0.00006400,0.00007149,-0.00001472,0.0017795
 5,-0.00185918,-0.00179347,0.00188894,0.00374327,0.01579303,0.00581816,
 0.00325272,0.00092807,-0.00284023,-0.00317027,-0.00049037,0.00002384,0
 .00057648,0.00081270,-0.00584559,0.00258874,-0.01060503,0.00064249,0.0
 0017686,-0.00035419,-0.00063785,0.00038961,0.00113362,-0.02386301,0.03
 816217,0.00004944,-0.00004643,-0.00002612,0.00199727,-0.00147554,-0.00
 134146,0.00184750,-0.00130676,-0.00391673,-0.00137973,0.00102367,0.000
 02669,-0.00040016,0.00028272,0.00030767,0.00008001,-0.00007220,-0.0001
 8836,-0.00723044,0.00522554,-0.00961259,0.00051158,0.00016135,-0.00000
 902,0.00000372,-0.00049680,-0.00002179,0.06648107,-0.04639282,0.341926
 69,0.00007626,-0.00003629,-0.00007632,-0.06816986,0.02865065,0.0703769
 8,-0.00119848,0.00595841,0.00094356,0.00117679,0.00310471,0.02316061,0
 .00047963,0.00007623,0.00115776,-0.00114281,-0.00289130,-0.00070750,0.
 00668780,-0.00624134,-0.01304041,0.00030453,-0.00054762,0.00114904,0.0
 0021011,0.00057549,-0.00001534,0.00145654,0.00049639,-0.00058049,0.062
 79082,0.00012436,-0.00003714,-0.00005484,0.02880596,-0.05096032,-0.054
 80431,0.00592136,0.00316084,-0.00078404,0.00259497,0.00295832,-0.01601
 717,0.00006292,0.00053764,-0.00084745,-0.00283790,-0.00315026,0.000523
 43,-0.00597051,0.00282986,0.00962018,0.00059743,0.00018821,0.00037751,
 -0.00057600,0.00035487,-0.00118532,0.00050070,0.00176450,0.00040492,-0
 .03064801,0.04397902,0.00008607,-0.00000859,-0.00002177,0.07333049,-0.
 05600924,-0.31428742,0.00099808,-0.00088640,0.00024084,-0.00172485,0.0
 0110036,-0.00203022,-0.00004888,0.00003613,-0.00009325,0.00048303,-0.0
 0024626,0.00027973,0.00844839,-0.00624367,-0.01017923,-0.00053148,-0.0
 0020125,0.00001315,0.00004044,0.00050849,0.00001693,0.00065754,-0.0004
 9874,-0.00043320,-0.07949882,0.06088073,0.32831371,-0.00627878,0.00337
 454,-0.00040341,0.00069093,0.00000447,-0.00039692,-0.00053818,-0.00001
 129,0.00023834,-0.00009823,0.00033383,0.00052262,0.00042515,0.00023427
 ,-0.00010164,-0.00006611,-0.00003628,0.00001836,0.00001948,-0.00016163
 ,0.00009808,0.00014987,-0.00014074,-0.00004707,0.00005809,0.00002043,-
 0.00004843,-0.00008087,0.00004353,-0.00001951,-0.00002659,-0.00008935,
 -0.00006538,0.14234381,0.00406043,-0.00103890,0.00033256,-0.00019377,-
 0.00012263,-0.00021209,0.00026576,-0.00074641,0.00040820,0.00021363,-0
 .00030342,-0.00009156,0.00024006,0.00013123,0.00000204,-0.00000588,0.0
 0001147,-0.00006698,-0.00006654,0.00005465,0.00000152,-0.00001585,0.00
 005395,-0.00004061,-0.00003219,-0.00003595,-0.00004597,0.00005590,0.00
 015038,-0.00004464,0.00005040,0.00005427,-0.00001822,-0.06332336,0.066
 02940,0.00688999,-0.00323265,0.00602220,-0.00111763,0.00006942,0.00075
 042,0.00074163,-0.00035024,-0.00009781,0.00003566,-0.00062267,-0.00094
 960,-0.00043158,-0.00005243,-0.00011967,0.00030750,0.00023685,0.000172
 39,0.00028944,0.00004675,-0.00012244,-0.00011112,0.00015163,-0.0000085
 0,-0.00007814,-0.00004948,0.00004900,0.00002241,-0.00034863,0.00015961
 ,0.00003931,0.00014410,0.00009294,-0.21726264,0.12936953,0.81119134,-0
 .00508347,0.01435892,-0.04440459,0.00001764,0.00000965,0.00031419,-0.0
 0007497,0.00037356,-0.00059651,-0.00063263,-0.00000095,-0.00034917,-0.
 00008100,-0.00004051,-0.00004937,0.00043975,0.00028901,0.00019979,0.00
 009158,-0.00019503,-0.00010832,0.00016300,-0.00015492,0.00006524,0.000
 06370,0.00002656,0.00005010,-0.00003481,-0.00010340,0.00007548,-0.0000
 8242,0.00000631,0.00000849,0.00164267,-0.00146130,0.00302302,0.1818140
 7,0.01434958,0.01471467,0.02318776,-0.00070724,0.00009753,0.00019556,0
 .00018883,-0.00023379,0.00004444,0.00024791,-0.00086444,-0.00041103,-0
 .00000468,0.00001880,0.00005738,0.00027005,0.00016352,0.00004248,0.000
 00168,0.00005144,0.00000634,-0.00002670,0.00005590,0.00005904,-0.00003
 940,-0.00003357,0.00005495,0.00005002,0.00005247,0.00001647,0.00003638
 ,0.00010183,0.00002458,-0.00152952,-0.00084159,-0.00172427,-0.08111323
 ,0.07348966,-0.02504565,0.01297356,-0.02602032,0.00002729,-0.00022668,
 0.00041825,0.00007672,0.00049992,-0.00097048,-0.00082729,0.00033533,-0
 .00028769,-0.00033680,-0.00022086,0.00013612,0.00049685,0.00014601,0.0
 0000518,-0.00016666,-0.00010197,-0.00014735,0.00011571,-0.00014174,0.0
 0003195,0.00006996,0.00004363,0.00006156,-0.00003364,-0.00015659,0.000
 10413,-0.00005192,0.00025796,0.00011420,-0.00422403,0.00219555,-0.0126
 0823,0.26623389,-0.14323295,0.76396419,-0.00429226,0.00678944,0.027060
 70,-0.00130358,-0.00018382,0.00052060,0.00064246,-0.00005009,-0.000405
 83,0.00044409,-0.00094117,-0.00083418,-0.00065650,-0.00048280,0.000492
 26,-0.00011896,-0.00010927,-0.00024240,-0.00031210,0.00048730,-0.00026
 717,-0.00035640,0.00035816,0.00005815,-0.00014837,-0.00005668,0.000058
 72,0.00010162,0.00008536,-0.00003940,0.00008928,0.00016220,0.00010470,
 -0.16359577,0.05360083,0.20921728,-0.00643705,0.00694604,0.02507661,0.
 45731452,0.00502799,0.00210806,-0.01415371,0.00054345,0.00013246,0.000
 17323,-0.00078679,0.00117691,-0.00068060,-0.00051381,0.00046082,-0.000
 13297,-0.00024269,-0.00021858,-0.00004214,0.00009241,0.00005836,0.0001
 7803,0.00007050,-0.00014298,-0.00002395,0.00010130,-0.00018291,0.00009
 696,0.00005669,0.00007239,0.00009255,-0.00008833,-0.00008622,0.0000531
 4,-0.00008683,-0.00007082,0.00001661,0.05355074,-0.09938942,-0.1222338
 7,0.00701381,0.00387901,-0.01313215,-0.13871688,0.27322042,0.02314245,
 -0.01245376,-0.03638270,0.00146012,-0.00029145,-0.00147790,-0.00081147
 ,0.00004002,0.00083746,0.00032564,0.00054960,0.00103818,0.00077076,0.0
 0016825,0.00037328,-0.00057638,-0.00046580,-0.00045333,-0.00078215,0.0
 0011455,0.00012356,0.00019532,-0.00024719,-0.00007319,0.00010182,0.000
 07437,-0.00011872,-0.00004004,0.00062214,-0.00027422,-0.00001634,-0.00
 016220,-0.00013026,0.20012993,-0.11745078,-0.68402636,-0.00123125,0.00
 085682,0.01919009,-0.21496290,0.12688775,0.95401880,-0.16486371,0.0444
 5199,-0.00518387,0.00000024,-0.00011673,-0.00028924,0.00041919,-0.0009
 2825,0.00083371,0.00061985,-0.00008985,0.00034587,-0.00016280,-0.00010
 998,0.00029887,-0.00056647,-0.00050087,-0.00050724,-0.00033549,0.00051
 225,0.00022755,-0.00037479,0.00037941,-0.00006631,-0.00015795,-0.00006
 643,-0.00003996,0.00010033,0.00015876,-0.00010475,0.00009497,0.0000902
 7,0.00004483,-0.00819078,0.00749519,-0.02263800,-0.20009464,0.06987593
 ,-0.24665394,0.04977448,-0.03417978,0.02505103,0.49512058,0.04428368,-
 0.10350191,0.00331434,0.00129773,-0.00044109,-0.00024285,-0.00050023,0
 .00037010,0.00018517,-0.00083859,0.00111559,0.00051694,0.00009942,0.00
 004380,-0.00014752,-0.00023346,-0.00024730,-0.00000083,-0.00001099,-0.
 00010100,-0.00000346,0.00011772,-0.00020177,-0.00010479,0.00006173,0.0
 0006608,-0.00009280,-0.00008861,-0.00006402,-0.00001490,-0.00007988,-0
 .00006700,-0.00003516,0.00798836,0.00354723,0.01197406,0.06995269,-0.1
 0630117,0.13262712,-0.03466897,0.00114872,-0.01410834,-0.15555340,0.28
 068001,0.00442241,-0.00200730,-0.08060566,0.00053289,0.00018450,-0.000
 75346,-0.00051620,-0.00054788,0.00128075,0.00101596,0.00015732,0.00130
 764,0.00071837,0.00048172,-0.00043901,-0.00095235,-0.00038046,0.000092
 04,0.00054154,-0.00003833,0.00018257,-0.00017473,0.00020944,-0.0001876
 7,-0.00007702,-0.00006582,-0.00017063,0.00000359,0.00019660,-0.0001559
 9,0.00010294,-0.00045139,-0.00020110,0.00369110,-0.00192388,0.02119529
 ,-0.23753473,0.12780183,-0.64035049,-0.03887210,0.02005873,-0.10873950
 ,0.24775374,-0.13291353,0.90892300,0.00854823,-0.00036278,0.00357101,-
 0.00000711,-0.00000212,0.00005291,-0.00001636,0.00016161,-0.00002814,-
 0.00004726,0.00002604,-0.00004756,-0.00000455,-0.00000187,-0.00001849,
 0.00000699,-0.00000250,0.00002994,0.00000518,-0.00002908,-0.00004762,0
 .00008849,-0.00009587,-0.00006508,0.00004336,0.00002463,0.00000257,-0.
 00005948,-0.00010716,0.00006458,0.00000636,0.00000070,0.00001689,0.001
 12030,-0.00108889,0.00199761,0.00025450,-0.00167526,-0.00064056,-0.007
 41830,0.00420941,-0.01743213,0.00055310,0.00635768,0.00351272,0.204453
 76,-0.00035194,0.00795935,-0.00174137,-0.00010647,0.00006393,-0.000064
 23,0.00012227,-0.00002832,0.00013781,0.00008067,-0.00006817,-0.0001354
 5,-0.00000292,-0.00001760,0.00000550,-0.00000685,-0.00002838,0.0000022
 2,-0.00010295,-0.00003179,0.00003106,0.00007206,-0.00010271,-0.0001068
 2,0.00003734,0.00002224,0.00000456,-0.00005075,-0.00004074,0.00004640,
 0.00001193,0.00000747,0.00001631,-0.00118056,-0.00049147,-0.00108780,-
 0.00167236,-0.00201902,0.00033468,0.00450976,-0.00120814,0.00931262,0.
 00612404,0.00932487,-0.00188243,-0.09296679,0.07228053,-0.02240050,0.0
 1156991,-0.00698420,-0.00000555,0.00002628,-0.00007496,0.00003028,-0.0
 0004219,-0.00001046,0.00001955,-0.00001364,-0.00001917,0.00000837,-0.0
 0001047,0.00001050,0.00001193,-0.00000585,-0.00000412,-0.00012722,-0.0
 0000283,-0.00002313,0.00007102,-0.00008205,-0.00000291,0.00004378,0.00
 002072,0.00000737,0.00002032,0.00002526,-0.00000852,-0.00000716,-0.000
 00033,-0.00000269,-0.00139500,0.00070699,-0.00023267,-0.00222938,0.001
 19839,-0.00069887,0.00779873,-0.00387930,0.01056074,0.00318215,-0.0017
 7357,-0.00621605,0.13830942,-0.07096848,0.16567137,0.00019010,-0.00047
 215,0.00116440,-0.00463507,0.00882672,0.00018551,-0.30644024,0.1701746
 5,-0.08933912,0.00751854,0.00220845,-0.04136458,-0.00831553,0.00873938
 ,-0.00941542,0.00024182,0.00100642,-0.00017825,-0.10021701,0.02012058,
 0.05184243,-0.01409708,0.01205089,0.02511099,-0.00194414,0.00126396,0.
 00077935,-0.06132373,0.02257234,-0.06133365,-0.00258116,0.00158967,-0.
 00215306,-0.00000286,-0.00069505,-0.00006582,0.00071451,-0.00016668,0.
 00101132,0.00004667,0.00130877,-0.00040503,-0.00122750,0.00053341,-0.0
 0141848,0.00016121,-0.00015187,-0.00002911,0.49155881,0.00016605,-0.00
 020702,0.00009595,0.00885678,0.00243245,-0.00059295,0.17086834,-0.1810
 9664,0.06335585,0.00278937,0.00864042,0.02812909,0.00891727,-0.0020354
 7,0.00667371,0.00112228,0.00115009,0.00005378,0.02009950,-0.08654405,-
 0.03793592,-0.00294108,0.00186413,0.00763827,0.01564565,-0.01073277,-0
 .02630289,0.02255106,-0.04568541,0.04264633,0.00152926,-0.00168823,0.0
 0157433,0.00000475,0.00001764,0.00028945,0.00005428,-0.00014364,0.0000
 1504,-0.00015504,-0.00040021,-0.00034776,-0.00025244,0.00014725,0.0002
 2003,0.00006964,0.00002306,0.00003876,-0.24933094,0.31400600,0.0000578
 3,-0.00038687,-0.00005864,0.00216209,-0.00217753,-0.05816914,-0.098891
 38,0.06924808,-0.14507454,-0.02013268,0.01366414,-0.04476236,0.0153524
 0,-0.01061899,0.01208127,0.00181430,-0.00136862,-0.00576389,0.03730889
 ,-0.02769050,-0.15128379,-0.00072716,0.00113263,0.00249882,-0.00112391
 ,0.00008236,0.00211459,-0.05837704,0.04136791,-0.32668036,-0.00292245,
 0.00189567,-0.00179896,-0.00026186,-0.00023774,0.00026944,0.00042646,0
 .00017823,0.00075806,0.00035050,0.00034476,-0.00047139,-0.00055057,-0.
 00008101,-0.00151419,0.00008559,0.00002890,0.00011482,0.12568971,-0.08
 543056,0.71706151,-0.10345681,0.02633386,-0.01493692,0.00022753,0.0001
 4537,-0.00002553,-0.00048109,0.00021428,-0.00061847,-0.00037505,0.0001
 2958,0.00023547,-0.00000194,0.00001991,-0.00003729,0.00002694,0.000041
 24,0.00006913,0.00007944,-0.00005096,0.00016088,0.00001601,-0.00001593
 ,0.00022481,0.00002888,0.00002077,0.00005443,0.00008214,0.00009570,-0.
 00008576,-0.00007160,-0.00008410,-0.00005731,0.00043294,0.01180107,0.0
 2321580,-0.00674413,0.00417621,-0.00576296,-0.16423162,0.04394474,0.00
 368816,-0.00850318,0.00693932,-0.02518854,-0.20348292,0.08511539,-0.12
 815245,0.00041523,-0.00022627,-0.00008592,0.51285845,0.02624880,-0.065
 06134,0.00387113,-0.00041435,-0.00019044,0.00037586,-0.00050067,0.0000
 2644,-0.00105113,-0.00022460,-0.00051509,0.00035711,0.00002509,0.00003
 070,0.00006048,0.00000013,0.00000069,0.00000381,-0.00005767,-0.0000781
 0,-0.00029421,-0.00012051,0.00009975,-0.00007606,-0.00003575,-0.000023
 78,-0.00002719,-0.00003788,-0.00003629,0.00000897,0.00005529,0.0000794
 8,0.00004434,0.01210648,0.01570309,-0.01284822,0.00359960,-0.00111298,
 0.00274306,0.04430540,-0.10333349,-0.00222461,0.00858265,0.00136053,0.
 01284423,0.08496757,-0.08220857,0.06571586,0.00077525,0.00011376,0.000
 12348,-0.20538829,0.22450965,-0.01875103,0.00719905,-0.52803039,-0.001
 28226,-0.00003788,-0.00006176,0.00076477,-0.00001463,0.00100994,0.0007
 2234,-0.00079420,-0.00147416,-0.00011122,-0.00007451,0.00005773,-0.000
 03637,-0.00000882,-0.00003900,-0.00010228,0.00019952,-0.00010723,0.000
 09475,-0.00008824,0.00009418,0.00001124,0.00002018,0.00001601,0.000061
 79,0.00002056,-0.00000124,0.00003121,0.00002379,-0.00001426,0.04257661
 ,-0.02306957,-0.03252915,0.00152831,-0.00085269,0.00651890,0.01325814,
 -0.00750491,-0.08158990,-0.02901533,0.01463728,-0.03138424,-0.12735698
 ,0.06504134,-0.16551436,-0.00053933,0.00006700,0.00020263,0.14292478,-
 0.06747402,0.84565924,-0.18240012,0.07588255,0.13088513,0.00019523,0.0
 0005255,-0.00008294,-0.00005557,0.00003280,0.00007226,-0.00002364,0.00
 018790,0.00002697,0.00001220,0.00000074,-0.00003326,-0.00002310,-0.000
 00584,0.00001655,0.00002860,-0.00002234,0.00005473,0.00006468,-0.00007
 067,0.00005130,0.00003329,0.00002106,-0.00000479,0.00000423,-0.0000018
 9,-0.00001542,-0.00004734,-0.00011445,-0.00005978,0.00047578,-0.001791
 37,0.00049116,0.00106263,-0.00108242,-0.00212782,-0.00002585,0.0066230
 0,-0.00382918,-0.00650985,0.00399018,0.01891527,-0.00102435,-0.0021074
 8,0.00062281,-0.00001702,-0.00001244,-0.00007789,0.00998105,-0.0011474
 8,-0.00500181,0.18162599,0.07613790,-0.07847291,-0.06897749,-0.0001546
 7,0.00000797,-0.00002276,0.00006732,-0.00005103,0.00013674,0.00012068,
 -0.00003412,-0.00013569,-0.00000805,-0.00002877,-0.00000385,-0.0000042
 9,-0.00001402,-0.00000355,-0.00008256,-0.00002798,-0.00001428,0.000072
 49,-0.00007826,0.00011462,0.00003468,0.00002005,-0.00000029,0.00001331
 ,0.00000513,-0.00001595,-0.00005316,-0.00006331,-0.00005521,-0.0017576
 2,-0.00197360,-0.00022307,-0.00112722,-0.00049891,0.00117265,0.0063363
 8,0.00921319,0.00180833,0.00393884,-0.00104452,-0.00995886,-0.00210989
 ,-0.00394384,-0.00031186,-0.00010177,0.00004151,0.00003523,-0.00082269
 ,0.00822826,0.00223040,-0.08317235,0.06824187,0.13171696,-0.06959505,-
 0.19050488,-0.00001349,-0.00004197,0.00012671,-0.00001353,0.00000910,-
 0.00001377,-0.00002178,0.00001449,-0.00001716,-0.00001061,0.00000715,-
 0.00000436,-0.00001132,0.00001111,0.00000998,0.00011978,0.00001111,-0.
 00002746,-0.00006983,0.00007794,-0.00003084,-0.00004105,-0.00001943,0.
 00000391,0.00000350,-0.00000390,0.00000076,-0.00000836,-0.00002095,0.0
 0000038,0.00207871,-0.00109015,-0.00095577,0.00125744,-0.00062237,-0.0
 0016545,-0.00350506,0.00167164,-0.00554115,-0.00630096,0.00322678,0.00
 950247,-0.00052152,0.00035326,0.00091236,0.00000350,-0.00001798,-0.000
 06440,0.02097238,-0.01105681,-0.00865122,-0.14195182,0.07515334,0.1926
 9356,-0.03359149,0.02582111,0.02288089,0.00006313,0.00024702,-0.000020
 80,-0.00022380,-0.00011279,0.00016728,-0.00011933,-0.00001252,0.000032
 50,0.00028164,0.00020808,-0.00043084,0.00017475,0.00018431,0.00035169,
 0.00029299,-0.00035792,0.00004232,0.00030174,-0.00023177,-0.00000996,0
 .00011465,0.00003289,-0.00001015,-0.00006430,-0.00014191,0.00007863,-0
 .00005284,-0.00013653,-0.00007938,0.03151915,-0.00910906,-0.00456587,0
 .03300107,-0.00979750,-0.00723707,-0.15951636,0.05207232,-0.01477839,-
 0.15569557,0.05035222,0.02352362,-0.00318114,0.00262748,0.00422803,-0.
 00004554,0.00024398,-0.00009693,-0.03680028,0.02726092,-0.01977732,-0.
 00335684,0.00267268,-0.00368296,0.32689840,0.02614604,0.00306523,-0.01
 237108,-0.00021735,0.00005658,0.00006567,0.00009014,-0.00037914,0.0001
 2679,0.00012844,-0.00024380,0.00000674,0.00004859,0.00003928,-0.000053
 94,0.00000022,0.00004050,0.00001212,0.00029267,-0.00004950,0.00000215,
 -0.00012420,0.00003813,-0.00001732,-0.00006084,-0.00002191,-0.00000972
 ,0.00003257,0.00000832,-0.00000347,0.00003929,0.00002075,0.00000086,-0
 .00943107,0.01919009,0.00049154,-0.00981546,0.01942427,0.00386845,0.05
 178386,-0.08643759,0.00731744,0.05018842,-0.08583439,-0.01198453,0.002
 62496,0.00050730,-0.00221159,-0.00025201,0.00009714,-0.00010957,0.0276
 1080,0.00240773,0.01048034,0.00273796,0.00047329,0.00193269,-0.1418230
 2,0.12759770,0.01969476,-0.01082755,-0.00803707,-0.00043386,0.00022124
 ,0.00061318,0.00038479,0.00016982,-0.00070708,-0.00042624,-0.00012197,
 -0.00070228,-0.00046708,-0.00023715,0.00001446,0.00046427,0.00028605,0
 .00010013,0.00006863,-0.00003496,0.00006427,-0.00001350,0.00001123,0.0
 0006902,-0.00000813,-0.00000141,0.00010460,0.00002654,-0.00024142,0.00
 014403,-0.00003629,0.00019972,0.00012048,-0.02512784,0.01127580,-0.108
 25244,0.01332088,-0.00688099,-0.11005375,-0.02486736,0.01221023,-0.066
 86350,0.03361240,-0.01696294,-0.07176576,-0.00148517,0.00067193,0.0025
 1494,0.00045465,-0.00016953,0.00054051,-0.01659471,0.00890390,-0.00416
 173,0.00204853,-0.00092843,0.00272632,-0.00061528,0.00245644,0.3635316
 6\\0.00000004,0.00000012,0.00000017,0.00000037,-0.00000028,0.00000013,
 0.00000006,0.00000011,-0.00000020,0.00000039,-0.00000016,-0.00000048,-
 0.00000051,-0.00000006,-0.00000057,0.00000044,-0.00000027,-0.00000044,
 0.00000022,0.00000004,0.00000034,0.00000016,0.00000015,0.00000068,0.00
 000019,0.00000001,0.00000047,-0.00000042,0.00000030,0.00000019,0.00000
 078,-0.00000024,0.00000023,-0.00000072,0.00000021,-0.00000056,0.000000
 39,-0.00000014,-0.00000078,-0.00000054,0.00000029,-0.00000008,0.000000
 09,-0.00000013,0.00000047,-0.00000052,0.00000032,0.00000041,-0.0000004
 1,-0.00000003,0.00000008,-0.00000019,0.00000018,0.00000020,0.00000032,
 -0.00000020,0.00000044,-0.00000013,-0.00000021,-0.00000071\\\@


 I (ERNEST RUTHERFORD) CAME INTO THE ROOM, WHICH WAS HALF DARK, AND PRESENTLY
 SPOTTED LORD KELVIN IN THE AUDIENCE AND REALIZED I WAS IN TROUBLE AT
 THE LAST PART OF MY SPEECH DEALING THE AGE OF THE EARTH, WHERE MY VIEWS
 CONFLICTED WITH HIS.  TO MY RELIEF KELVIN FELL FAST ASLEEP, BUT AS I CAME
 TO THE IMPORTANT POINT, I SAW THE OLD BIRD SIT UP AND COCK A BALEFUL GLANCE
 AT ME! THEN A SUDDEN INSPIRATION CAME AND I SAID LORD KELVIN HAD LIMITED
 THE AGE OF THE EARTH PROVIDED NO NEW SOURCE WAS DISCOVERED. THAT
 PROPHETIC UTTERANCE REFERS TO WHAT WE ARE NOW CONSIDERING TONIGHT, RADIUM!
 BEHOLD!  THE OLD BOY BEAMED UPON ME.
 Job cpu time:       0 days  3 hours 33 minutes 56.4 seconds.
 Elapsed time:       0 days  0 hours 18 minutes 17.2 seconds.
 File lengths (MBytes):  RWF=    299 Int=      0 D2E=      0 Chk=     32 Scr=      1
 Normal termination of Gaussian 16 at Sun Jun 12 01:11:40 2022.
