 Entering Gaussian System, Link 0=g16
 Input=ts_initalOpt_zmat_sp.gjf
 Output=ts_initalOpt_zmat_sp.out
 Initial command:
 /software/gaussian/g16-a03/l1.exe "/local_scratch/11174422/Gau-27739.inp" -scrdir="/local_scratch/11174422/"
 Entering Link 1 = /software/gaussian/g16-a03/l1.exe PID=     27740.
  
 Copyright (c) 1988,1990,1992,1993,1995,1998,2003,2009,2016,
            Gaussian, Inc.  All Rights Reserved.
  
 This is part of the Gaussian(R) 16 program.  It is based on
 the Gaussian(R) 09 system (copyright 2009, Gaussian, Inc.),
 the Gaussian(R) 03 system (copyright 2003, Gaussian, Inc.),
 the Gaussian(R) 98 system (copyright 1998, Gaussian, Inc.),
 the Gaussian(R) 94 system (copyright 1995, Gaussian, Inc.),
 the Gaussian 92(TM) system (copyright 1992, Gaussian, Inc.),
 the Gaussian 90(TM) system (copyright 1990, Gaussian, Inc.),
 the Gaussian 88(TM) system (copyright 1988, Gaussian, Inc.),
 the Gaussian 86(TM) system (copyright 1986, Carnegie Mellon
 University), and the Gaussian 82(TM) system (copyright 1983,
 Carnegie Mellon University). Gaussian is a federally registered
 trademark of Gaussian, Inc.
  
 This software contains proprietary and confidential information,
 including trade secrets, belonging to Gaussian, Inc.
  
 This software is provided under written license and may be
 used, copied, transmitted, or stored only in accord with that
 written license.
  
 The following legend is applicable only to US Government
 contracts under FAR:
  
                    RESTRICTED RIGHTS LEGEND
  
 Use, reproduction and disclosure by the US Government is
 subject to restrictions as set forth in subparagraphs (a)
 and (c) of the Commercial Computer Software - Restricted
 Rights clause in FAR 52.227-19.
  
 Gaussian, Inc.
 340 Quinnipiac St., Bldg. 40, Wallingford CT 06492
  
  
 ---------------------------------------------------------------
 Warning -- This program may not be used in any manner that
 competes with the business of Gaussian, Inc. or will provide
 assistance to any competitor of Gaussian, Inc.  The licensee
 of this program is prohibited from giving any competitor of
 Gaussian, Inc. access to this program.  By using this program,
 the user acknowledges that Gaussian, Inc. is engaged in the
 business of creating and licensing software in the field of
 computational chemistry and represents and warrants to the
 licensee that it is not a competitor of Gaussian, Inc. and that
 it will not use this program in any manner prohibited above.
 ---------------------------------------------------------------
  

 Cite this work as:
 Gaussian 16, Revision A.03,
 M. J. Frisch, G. W. Trucks, H. B. Schlegel, G. E. Scuseria, 
 M. A. Robb, J. R. Cheeseman, G. Scalmani, V. Barone, 
 G. A. Petersson, H. Nakatsuji, X. Li, M. Caricato, A. V. Marenich, 
 J. Bloino, B. G. Janesko, R. Gomperts, B. Mennucci, H. P. Hratchian, 
 J. V. Ortiz, A. F. Izmaylov, J. L. Sonnenberg, D. Williams-Young, 
 F. Ding, F. Lipparini, F. Egidi, J. Goings, B. Peng, A. Petrone, 
 T. Henderson, D. Ranasinghe, V. G. Zakrzewski, J. Gao, N. Rega, 
 G. Zheng, W. Liang, M. Hada, M. Ehara, K. Toyota, R. Fukuda, 
 J. Hasegawa, M. Ishida, T. Nakajima, Y. Honda, O. Kitao, H. Nakai, 
 T. Vreven, K. Throssell, J. A. Montgomery, Jr., J. E. Peralta, 
 F. Ogliaro, M. J. Bearpark, J. J. Heyd, E. N. Brothers, K. N. Kudin, 
 V. N. Staroverov, T. A. Keith, R. Kobayashi, J. Normand, 
 K. Raghavachari, A. P. Rendell, J. C. Burant, S. S. Iyengar, 
 J. Tomasi, M. Cossi, J. M. Millam, M. Klene, C. Adamo, R. Cammi, 
 J. W. Ochterski, R. L. Martin, K. Morokuma, O. Farkas, 
 J. B. Foresman, and D. J. Fox, Gaussian, Inc., Wallingford CT, 2016.
 
 ******************************************
 Gaussian 16:  ES64L-G16RevA.03 25-Dec-2016
                10-Jun-2022 
 ******************************************
 %nprocshared=12
 Will use up to   12 processors via shared memory.
 %chk=checkpoint.chk
 %mem=12GB
 --------------------------
 # sp B3LYP/Def2TZVP NoSymm
 --------------------------
 1/38=1,172=1/1;
 2/12=2,15=1,17=6,18=5,40=1/2;
 3/5=44,7=101,11=2,25=1,30=1,74=-5/1,2,3;
 4//1;
 5/5=2,38=5/2;
 6/7=2,8=2,9=2,10=2,28=1/1;
 99/5=1,9=1/99;
 ---------------------------
 ts_initalOpt_zmat_AlignedSp
 ---------------------------
 Symbolic Z-matrix:
 Charge =  0 Multiplicity = 1
 H
 C                    1    R2
 H                    2    R3       1    A3
 C                    2    R4       1    A4       3    D4       0
 C                    2    R5       1    A5       3    D5       0
 H                    5    R6       2    A6       1    D6       0
 C                    4    R7       2    A7       1    D7       0
 C                    5    R8       2    A8       6    D8       0
 H                    4    R9       2    A9       7    D9       0
 H                    4    R10      2    A10      7    D10      0
 H                    8    R11      5    A11      2    D11      0
 C                    8    R12      5    A12      11   D12      0
 C                    7    R13      4    A13      2    D13      0
 H                    7    R14      4    A14      13   D14      0
 H                    12   R15      8    A15      5    D15      0
 H                    12   R16      8    A16      15   D16      0
 C                    13   R17      7    A17      4    D17      0
 H                    13   R18      7    A18      17   D18      0
 H                    17   R19      13   A19      7    D19      0
 H                    17   R20      13   A20      19   D20      0
       Variables:
  R2                    1.09159                  
  R3                    1.09156                  
  R4                    1.5392                   
  R5                    1.52389                  
  R6                    1.08383                  
  R7                    1.52389                  
  R8                    1.39164                  
  R9                    1.09159                  
  R10                   1.09156                  
  R11                   1.08651                  
  R12                   1.37677                  
  R13                   1.39164                  
  R14                   1.08383                  
  R15                   1.07998                  
  R16                   1.0816                   
  R17                   1.37677                  
  R18                   1.08651                  
  R19                   1.07998                  
  R20                   1.0816                   
  A3                  106.76207                  
  A4                  112.61872                  
  A5                  110.76211                  
  A6                  116.4387                   
  A7                  102.25231                  
  A8                  123.93291                  
  A9                  112.61857                  
  A10                 112.82172                  
  A11                 116.33963                  
  A12                 124.75675                  
  A13                 123.93288                  
  A14                 116.43876                  
  A15                 121.28355                  
  A16                 120.14802                  
  A17                 124.75683                  
  A18                 116.33962                  
  A19                 121.28354                  
  A20                 120.14809                  
  D4                  124.35506                  
  D5                 -121.82784                  
  D6                  -21.52825                  
  D7                  118.91122                  
  D8                  161.242                    
  D9                 -118.9114                   
  D10                 120.13865                  
  D11                -176.03579                  
  D12                -165.07176                  
  D13                 100.07311                  
  D14                 161.24205                  
  D15                 -25.7028                   
  D16                -159.52692                  
  D17                 -18.89227                  
  D18                -165.07196                  
  D19                  25.70267                  
  D20                 159.52712                  
 
                          Input orientation:                          
 ---------------------------------------------------------------------
 Center     Atomic      Atomic             Coordinates (Angstroms)
 Number     Number       Type             X           Y           Z
 ---------------------------------------------------------------------
      1          1           0        0.000000    0.000000    0.000000
      2          6           0        0.000000    0.000000    1.091590
      3          1           0        1.045176    0.000000    1.406393
      4          6           0       -0.801790    1.172958    1.683561
      5          6           0       -0.751464   -1.210674    1.631793
      6          1           0       -1.460775   -1.678147    0.958710
      7          6           0       -1.890180    0.455177    2.472513
      8          6           0       -0.335552   -1.956295    2.730756
      9          1           0       -1.239170    1.812816    0.914893
     10          1           0       -0.197700    1.818231    2.324023
     11          1           0       -0.928641   -2.834745    2.969670
     12          6           0        0.557171   -1.519199    3.683372
     13          6           0       -1.851628    0.261601    3.850081
     14          1           0       -2.855379    0.362050    1.988354
     15          1           0        1.295243   -0.764329    3.455841
     16          1           0        0.764664   -2.127655    4.553193
     17          6           0       -0.714670    0.341398    4.622378
     18          1           0       -2.724550   -0.207477    4.295594
     19          1           0        0.130997    0.938867    4.315412
     20          1           0       -0.754339    0.094517    5.674678
 ---------------------------------------------------------------------
                    Distance matrix (angstroms):
                    1          2          3          4          5
     1  H    0.000000
     2  C    1.091590   0.000000
     3  H    1.752237   1.091556   0.000000
     4  C    2.202970   1.539197   2.205434   0.000000
     5  C    2.166374   1.523893   2.178177   2.384725   0.000000
     6  H    2.422637   2.228834   3.048999   3.014709   1.083833
     7  C    3.145360   2.384725   3.155965   1.523892   2.185988
     8  C    3.375902   2.574209   2.736319   3.332600   1.391637
     9  H    2.378839   2.202968   2.957383   1.091590   3.145361
    10  H    2.957386   2.205434   2.385949   1.091556   3.155963
    11  H    4.209167   3.524959   3.791513   4.210920   2.111614
    12  C    4.023137   3.055444   2.780422   3.618526   2.452894
    13  C    4.280196   3.332601   3.798884   2.574206   2.880755
    14  H    3.498260   3.014707   3.960315   2.228833   2.650859
    15  H    3.768911   2.802059   2.201584   3.360299   2.777658
    16  H    5.083620   4.134527   3.808931   4.645709   3.416735
    17  C    4.689743   3.618531   3.681871   3.055442   3.369552
    18  H    5.091006   4.210921   4.754089   3.524957   3.463424
    19  H    4.418304   3.360306   3.190546   2.802058   3.549799
    20  H    5.725376   4.645713   4.633081   4.134526   4.248347
                    6          7          8          9         10
     6  H    0.000000
     7  C    2.650860   0.000000
     8  C    2.117461   2.880756   0.000000
     9  H    3.498264   2.166374   4.280197   0.000000
    10  H    3.960316   2.178176   3.798879   1.752237   0.000000
    11  H    2.380093   3.463425   1.086512   5.091008   4.754085
    12  C    3.394283   3.369550   1.376766   4.689738   3.681861
    13  C    3.503628   1.391636   2.910401   3.375900   2.736316
    14  H    2.677217   1.083832   3.503629   2.422638   3.048999
    15  H    3.829669   3.549796   2.146165   4.418297   3.190535
    16  H    4.251463   4.248346   2.135676   5.725372   4.633072
    17  C    4.249435   2.452894   3.000226   4.023135   2.780419
    18  H    3.859376   2.111612   3.348790   4.209165   3.791511
    19  H    4.544221   2.777659   3.333281   3.768909   2.201580
    20  H    5.087410   3.416734   3.612186   5.083617   3.808927
                   11         12         13         14         15
    11  H    0.000000
    12  C    2.108950   0.000000
    13  C    3.348788   3.000225   0.000000
    14  H    3.859378   4.249433   2.117459   0.000000
    15  H    3.077117   1.079977   3.333280   4.544218   0.000000
    16  H    2.423800   1.081601   3.612186   5.087410   1.828757
    17  C    3.586797   2.441543   1.376766   3.394281   2.573556
    18  H    3.447593   3.586798   1.086512   2.380091   4.144153
    19  H    4.144153   2.573555   2.146165   3.829668   2.234996
    20  H    3.990993   2.879138   2.135677   4.251462   3.140325
                   16         17         18         19         20
    16  H    0.000000
    17  C    2.879138   0.000000
    18  H    3.990996   2.108950   0.000000
    19  H    3.140323   1.079977   3.077117   0.000000
    20  H    2.916015   1.081600   2.423800   1.828757   0.000000
 Symmetry turned off by external request.
 Stoichiometry    C8H12
 Framework group  C1[X(C8H12)]
 Deg. of freedom    54
 Full point group                 C1      NOp   1
 Rotational constants (GHZ):           2.4921688           2.3101024           1.5833667
 Standard basis: def2TZVP (5D, 7F)
   320 basis functions,   504 primitive gaussians,   360 cartesian basis functions
    30 alpha electrons       30 beta electrons
       nuclear repulsion energy       368.2317443624 Hartrees.
 NAtoms=   20 NActive=   20 NUniq=   20 SFac= 1.00D+00 NAtFMM=   60 NAOKFM=F Big=F
 Integral buffers will be    131072 words long.
 Raffenetti 2 integral format.
 Two-electron integral symmetry is turned off.
 One-electron integrals computed using PRISM.
   1 Symmetry operations used in ECPInt.
 ECPInt:  NShTT=    9316 NPrTT=   27240 LenC2=    9239 LenP2D=   22136.
 LDataN:  DoStor=T MaxTD1= 6 Len=  172
 NBasis=   320 RedAO= T EigKep=  2.55D-05  NBF=   320
 NBsUse=   320 1.00D-06 EigRej= -1.00D+00 NBFU=   320
 ExpMin= 9.52D-02 ExpMax= 1.36D+04 ExpMxC= 4.63D+02 IAcc=3 IRadAn=         5 AccDes= 0.00D+00
 Harris functional with IExCor=  402 and IRadAn=       5 diagonalized for initial guess.
 HarFok:  IExCor=  402 AccDes= 0.00D+00 IRadAn=         5 IDoV= 1 UseB2=F ITyADJ=14
 ICtDFT=  3500011 ScaDFX=  1.000000  1.000000  1.000000  1.000000
 FoFCou: FMM=F IPFlag=           0 FMFlag=      100000 FMFlg1=           0
         NFxFlg=           0 DoJE=T BraDBF=F KetDBF=T FulRan=T
         wScrn=  0.000000 ICntrl=       500 IOpCl=  0 I1Cent=   200000004 NGrid=           0
         NMat0=    1 NMatS0=      1 NMatT0=    0 NMatD0=    1 NMtDS0=    0 NMtDT0=    0
 Symmetry not used in FoFCou.
 Requested convergence on RMS density matrix=1.00D-08 within 128 cycles.
 Requested convergence on MAX density matrix=1.00D-06.
 Requested convergence on             energy=1.00D-06.
 No special actions if energy rises.
 Integral accuracy reduced to 1.0D-05 until final iterations.
 Initial convergence to 1.0D-05 achieved.  Increase integral accuracy.
 SCF Done:  E(RB3LYP) =  -312.079794717     A.U. after   13 cycles
            NFock= 13  Conv=0.99D-08     -V/T= 2.0056

 **********************************************************************

            Population analysis using the SCF density.

 **********************************************************************

 Alpha  occ. eigenvalues --  -10.18167 -10.18167 -10.17162 -10.17143 -10.17029
 Alpha  occ. eigenvalues --  -10.17028 -10.16205 -10.16203  -0.83629  -0.77663
 Alpha  occ. eigenvalues --   -0.75856  -0.67516  -0.66398  -0.60185  -0.54911
 Alpha  occ. eigenvalues --   -0.50575  -0.50224  -0.46844  -0.46297  -0.43209
 Alpha  occ. eigenvalues --   -0.40280  -0.40237  -0.37798  -0.37211  -0.36331
 Alpha  occ. eigenvalues --   -0.33362  -0.32190  -0.31997  -0.24083  -0.21179
 Alpha virt. eigenvalues --   -0.03807   0.00481   0.03418   0.04141   0.06652
 Alpha virt. eigenvalues --    0.06911   0.07926   0.09342   0.10097   0.10843
 Alpha virt. eigenvalues --    0.11357   0.13379   0.14249   0.14622   0.14867
 Alpha virt. eigenvalues --    0.16858   0.18057   0.19033   0.20337   0.20542
 Alpha virt. eigenvalues --    0.23366   0.23377   0.24289   0.25075   0.25895
 Alpha virt. eigenvalues --    0.26688   0.27020   0.28779   0.29640   0.31902
 Alpha virt. eigenvalues --    0.32784   0.33006   0.33888   0.35893   0.36294
 Alpha virt. eigenvalues --    0.39201   0.39566   0.40674   0.40917   0.41215
 Alpha virt. eigenvalues --    0.42921   0.43287   0.44702   0.44745   0.44998
 Alpha virt. eigenvalues --    0.45118   0.45795   0.47073   0.47288   0.48221
 Alpha virt. eigenvalues --    0.48904   0.50098   0.50874   0.51422   0.55373
 Alpha virt. eigenvalues --    0.56413   0.57079   0.58737   0.60520   0.62567
 Alpha virt. eigenvalues --    0.64791   0.66099   0.66375   0.66711   0.70299
 Alpha virt. eigenvalues --    0.72456   0.76844   0.76853   0.80170   0.81316
 Alpha virt. eigenvalues --    0.85157   0.86646   0.87667   0.91188   0.92058
 Alpha virt. eigenvalues --    0.92585   0.94277   0.95341   0.98317   0.98771
 Alpha virt. eigenvalues --    0.99101   1.02221   1.03345   1.04327   1.06392
 Alpha virt. eigenvalues --    1.08314   1.08759   1.10020   1.11467   1.15121
 Alpha virt. eigenvalues --    1.17215   1.17285   1.18005   1.19954   1.22334
 Alpha virt. eigenvalues --    1.22927   1.23398   1.24788   1.29487   1.30485
 Alpha virt. eigenvalues --    1.34556   1.36211   1.37734   1.40627   1.44216
 Alpha virt. eigenvalues --    1.45844   1.49199   1.49385   1.49684   1.50642
 Alpha virt. eigenvalues --    1.52056   1.54029   1.54532   1.57970   1.58340
 Alpha virt. eigenvalues --    1.59715   1.60428   1.64127   1.65120   1.67063
 Alpha virt. eigenvalues --    1.67101   1.68334   1.70901   1.74101   1.74214
 Alpha virt. eigenvalues --    1.75361   1.75736   1.79426   1.79601   1.81503
 Alpha virt. eigenvalues --    1.83563   1.87378   1.88327   1.90818   1.92948
 Alpha virt. eigenvalues --    1.93201   1.96172   1.96717   2.00255   2.00926
 Alpha virt. eigenvalues --    2.05758   2.06554   2.09623   2.12288   2.13541
 Alpha virt. eigenvalues --    2.18576   2.20736   2.24055   2.28271   2.30130
 Alpha virt. eigenvalues --    2.30935   2.33758   2.35286   2.36209   2.39142
 Alpha virt. eigenvalues --    2.40003   2.42631   2.45638   2.47314   2.48146
 Alpha virt. eigenvalues --    2.49248   2.50954   2.53418   2.53549   2.54087
 Alpha virt. eigenvalues --    2.58113   2.60864   2.61667   2.62936   2.63551
 Alpha virt. eigenvalues --    2.64210   2.66588   2.67955   2.68820   2.70073
 Alpha virt. eigenvalues --    2.70899   2.72795   2.73784   2.75888   2.76873
 Alpha virt. eigenvalues --    2.77093   2.79779   2.80354   2.80905   2.82545
 Alpha virt. eigenvalues --    2.86761   2.88155   2.89332   2.91458   2.93370
 Alpha virt. eigenvalues --    2.95569   2.96059   2.97267   3.00446   3.00878
 Alpha virt. eigenvalues --    3.01422   3.05249   3.06794   3.07294   3.09045
 Alpha virt. eigenvalues --    3.12198   3.12959   3.14628   3.16336   3.16431
 Alpha virt. eigenvalues --    3.20494   3.23441   3.23477   3.24612   3.26025
 Alpha virt. eigenvalues --    3.27129   3.27632   3.28072   3.28213   3.31411
 Alpha virt. eigenvalues --    3.32852   3.34511   3.36642   3.38868   3.38976
 Alpha virt. eigenvalues --    3.42515   3.44170   3.47224   3.47926   3.48592
 Alpha virt. eigenvalues --    3.49671   3.51969   3.53135   3.54897   3.57242
 Alpha virt. eigenvalues --    3.58321   3.58765   3.60863   3.66056   3.68063
 Alpha virt. eigenvalues --    3.69005   3.70370   3.75253   3.76721   3.79328
 Alpha virt. eigenvalues --    3.81740   3.86073   3.88807   3.89691   3.98413
 Alpha virt. eigenvalues --    4.01807   4.03360   4.03815   4.04400   4.06220
 Alpha virt. eigenvalues --    4.06662   4.08318   4.10650   4.13336   4.17852
 Alpha virt. eigenvalues --    4.20287   4.21272   4.25109   4.26784   4.29744
 Alpha virt. eigenvalues --    4.33350   4.33494   4.39610   4.44901   4.47868
 Alpha virt. eigenvalues --    4.55045   4.58104   4.59826   4.64515   4.68812
 Alpha virt. eigenvalues --    4.69884   4.77857   4.78625   4.84711   4.84983
 Alpha virt. eigenvalues --    4.95643   4.98628   5.01521   5.03985   5.15121
 Alpha virt. eigenvalues --    5.16920   5.35003  22.13744  22.37158  22.41579
 Alpha virt. eigenvalues --   22.41920  22.56995  22.67579  22.76091  22.96620
          Condensed to atoms (all electrons):
               1          2          3          4          5          6
     1  H    0.613540   0.389559  -0.024470  -0.035985  -0.032046  -0.009723
     2  C    0.389559   4.956661   0.396684   0.379714   0.278964  -0.039518
     3  H   -0.024470   0.396684   0.609555  -0.045927  -0.033482   0.005100
     4  C   -0.035985   0.379714  -0.045927   4.956549  -0.126988   0.004347
     5  C   -0.032046   0.278964  -0.033482  -0.126988   5.078489   0.404628
     6  H   -0.009723  -0.039518   0.005100   0.004347   0.404628   0.593271
     7  C    0.013198  -0.127005   0.011275   0.279001   0.151945  -0.006161
     8  C    0.006482  -0.016114  -0.012036  -0.012301   0.513297  -0.050148
     9  H   -0.012636  -0.035990   0.006803   0.389564   0.013198   0.000213
    10  H    0.006803  -0.045933  -0.009354   0.396702   0.011277  -0.000879
    11  H   -0.000286   0.009167   0.000004  -0.001413  -0.046497  -0.010968
    12  C   -0.000971   0.015238   0.003273   0.007283  -0.077825   0.010484
    13  C   -0.000943  -0.012302   0.004136  -0.016160  -0.011372   0.001927
    14  H    0.000213   0.004345  -0.000879  -0.039508  -0.006164  -0.004522
    15  H    0.000361   0.001212   0.004676  -0.006591  -0.003651  -0.000501
    16  H   -0.000009  -0.000943   0.000254   0.000301   0.009598  -0.000253
    17  C   -0.000227   0.007291  -0.006540   0.015223  -0.034124   0.000160
    18  H    0.000045  -0.001413   0.000085   0.009168  -0.001226   0.000077
    19  H    0.000176  -0.006593   0.001905   0.001212   0.003467  -0.000052
    20  H    0.000003   0.000301  -0.000039  -0.000941   0.000063  -0.000003
               7          8          9         10         11         12
     1  H    0.013198   0.006482  -0.012636   0.006803  -0.000286  -0.000971
     2  C   -0.127005  -0.016114  -0.035990  -0.045933   0.009167   0.015238
     3  H    0.011275  -0.012036   0.006803  -0.009354   0.000004   0.003273
     4  C    0.279001  -0.012301   0.389564   0.396702  -0.001413   0.007283
     5  C    0.151945   0.513297   0.013198   0.011277  -0.046497  -0.077825
     6  H   -0.006161  -0.050148   0.000213  -0.000879  -0.010968   0.010484
     7  C    5.078468  -0.011402  -0.032044  -0.033493  -0.001227  -0.034109
     8  C   -0.011402   4.980462  -0.000943   0.004135   0.410436   0.495594
     9  H   -0.032044  -0.000943   0.613537  -0.024473   0.000045  -0.000227
    10  H   -0.033493   0.004135  -0.024473   0.609551   0.000085  -0.006539
    11  H   -0.001227   0.410436   0.000045   0.000085   0.598214  -0.042164
    12  C   -0.034109   0.495594  -0.000227  -0.006539  -0.042164   5.031406
    13  C    0.513348  -0.129390   0.006480  -0.012024  -0.000054  -0.030505
    14  H    0.404623   0.001925  -0.009722   0.005099   0.000077   0.000160
    15  H    0.003464  -0.041551   0.000176   0.001905   0.006775   0.414917
    16  H    0.000064  -0.043756   0.000003  -0.000039  -0.008638   0.411911
    17  C   -0.077805  -0.030515  -0.000971   0.003269  -0.001559   0.118988
    18  H   -0.046498  -0.000052  -0.000286   0.000004  -0.000349  -0.001559
    19  H   -0.003650  -0.003751   0.000361   0.004677  -0.000052  -0.025732
    20  H    0.009595   0.002162  -0.000009   0.000254   0.000148   0.001338
              13         14         15         16         17         18
     1  H   -0.000943   0.000213   0.000361  -0.000009  -0.000227   0.000045
     2  C   -0.012302   0.004345   0.001212  -0.000943   0.007291  -0.001413
     3  H    0.004136  -0.000879   0.004676   0.000254  -0.006540   0.000085
     4  C   -0.016160  -0.039508  -0.006591   0.000301   0.015223   0.009168
     5  C   -0.011372  -0.006164  -0.003651   0.009598  -0.034124  -0.001226
     6  H    0.001927  -0.004522  -0.000501  -0.000253   0.000160   0.000077
     7  C    0.513348   0.404623   0.003464   0.000064  -0.077805  -0.046498
     8  C   -0.129390   0.001925  -0.041551  -0.043756  -0.030515  -0.000052
     9  H    0.006480  -0.009722   0.000176   0.000003  -0.000971  -0.000286
    10  H   -0.012024   0.005099   0.001905  -0.000039   0.003269   0.000004
    11  H   -0.000054   0.000077   0.006775  -0.008638  -0.001559  -0.000349
    12  C   -0.030505   0.000160   0.414917   0.411911   0.118988  -0.001559
    13  C    4.980393  -0.050141  -0.003749   0.002161   0.495630   0.410438
    14  H   -0.050141   0.593266  -0.000052  -0.000003   0.010483  -0.010968
    15  H   -0.003749  -0.000052   0.563237  -0.030252  -0.025734  -0.000052
    16  H    0.002161  -0.000003  -0.030252   0.543352   0.001338   0.000148
    17  C    0.495630   0.010483  -0.025734   0.001338   5.031398  -0.042164
    18  H    0.410438  -0.010968  -0.000052   0.000148  -0.042164   0.598213
    19  H   -0.041553  -0.000501  -0.001548   0.001059   0.414915   0.006775
    20  H   -0.043748  -0.000253   0.001059  -0.002102   0.411903  -0.008638
              19         20
     1  H    0.000176   0.000003
     2  C   -0.006593   0.000301
     3  H    0.001905  -0.000039
     4  C    0.001212  -0.000941
     5  C    0.003467   0.000063
     6  H   -0.000052  -0.000003
     7  C   -0.003650   0.009595
     8  C   -0.003751   0.002162
     9  H    0.000361  -0.000009
    10  H    0.004677   0.000254
    11  H   -0.000052   0.000148
    12  C   -0.025732   0.001338
    13  C   -0.041553  -0.043748
    14  H   -0.000501  -0.000253
    15  H   -0.001548   0.001059
    16  H    0.001059  -0.002102
    17  C    0.414915   0.411903
    18  H    0.006775  -0.008638
    19  H    0.563240  -0.030251
    20  H   -0.030251   0.543351
 Mulliken charges:
               1
     1  H    0.086916
     2  C   -0.153327
     3  H    0.088977
     4  C   -0.153250
     5  C   -0.091554
     6  H    0.102521
     7  C   -0.091586
     8  C   -0.062532
     9  H    0.086921
    10  H    0.088973
    11  H    0.088254
    12  C   -0.290961
    13  C   -0.062573
    14  H    0.102522
    15  H    0.115899
    16  H    0.115807
    17  C   -0.290959
    18  H    0.088251
    19  H    0.115895
    20  H    0.115807
 Sum of Mulliken charges =  -0.00000
 Mulliken charges with hydrogens summed into heavy atoms:
               1
     2  C    0.022565
     4  C    0.022644
     5  C    0.010967
     7  C    0.010936
     8  C    0.025722
    12  C   -0.059255
    13  C    0.025677
    17  C   -0.059257
 Electronic spatial extent (au):  <R**2>=           2624.4602
 Charge=             -0.0000 electrons
 Dipole moment (field-independent basis, Debye):
    X=             -0.1463    Y=              0.1099    Z=             -0.4161  Tot=              0.4546
 Quadrupole moment (field-independent basis, Debye-Ang):
   XX=            -50.2636   YY=            -53.0751   ZZ=            -51.2925
   XY=              2.8468   XZ=              1.8339   YZ=             -1.8303
 Traceless Quadrupole moment (field-independent basis, Debye-Ang):
   XX=              1.2801   YY=             -1.5314   ZZ=              0.2512
   XY=              2.8468   XZ=              1.8339   YZ=             -1.8303
 Octapole moment (field-independent basis, Debye-Ang**2):
  XXX=            101.9690  YYY=             43.8520  ZZZ=           -410.7920  XYY=             33.6609
  XXY=             12.0734  XXZ=           -139.7429  XZZ=             43.9324  YZZ=              0.8059
  YYZ=           -143.9840  XYZ=              9.4917
 Hexadecapole moment (field-independent basis, Debye-Ang**3):
 XXXX=           -440.4567 YYYY=           -470.8847 ZZZZ=          -2753.3368 XXXY=             42.3747
 XXXZ=            292.5007 YYYX=             48.3827 YYYZ=            125.7663 ZZZX=            330.1523
 ZZZY=             59.0418 XXYY=           -159.1695 XXZZ=           -552.1435 YYZZ=           -560.9154
 XXYZ=             33.8338 YYXZ=            103.7163 ZZXY=             44.6745
 N-N= 3.682317443624D+02 E-N=-1.459185555917D+03  KE= 3.103512140343D+02
 1\1\GINC-BHC0068\SP\RB3LYP\def2TZVP\C8H12\DHANAWAY\10-Jun-2022\0\\# sp
  B3LYP/Def2TZVP NoSymm\\ts_initalOpt_zmat_AlignedSp\\0,1\H\C,1,1.09159
 039\H,2,1.09155591,1,106.76207035\C,2,1.539197,1,112.61872193,3,124.35
 505649,0\C,2,1.52389253,1,110.76210903,3,-121.82784172,0\H,5,1.0838330
 8,2,116.43869693,1,-21.52825008,0\C,4,1.52389169,2,102.25231488,1,118.
 91122366,0\C,5,1.39163729,2,123.9329063,6,161.24199967,0\H,4,1.0915902
 8,2,112.6185702,7,-118.91139718,0\H,4,1.09155584,2,112.82171971,7,120.
 13865158,0\H,8,1.08651206,5,116.33963262,2,-176.03579138,0\C,8,1.37676
 59,5,124.75674813,11,-165.07176127,0\C,7,1.39163579,4,123.93287596,2,1
 00.07311151,0\H,7,1.08383243,4,116.43876237,13,161.24205096,0\H,12,1.0
 7997664,8,121.28355407,5,-25.70280029,0\H,12,1.08160072,8,120.14802235
 ,15,-159.52692176,0\C,13,1.37676604,7,124.75683339,4,-18.89227106,0\H,
 13,1.08651243,7,116.33961679,17,-165.07196146,0\H,17,1.07997689,13,121
 .28354233,7,25.70266865,0\H,17,1.08160002,13,120.14809084,19,159.52711
 969,0\\Version=ES64L-G16RevA.03\HF=-312.0797947\RMSD=9.875e-09\Dipole=
 -0.0575734,0.0432573,-0.1636996\Quadrupole=0.9517528,-1.1385474,0.1867
 946,2.1164972,1.3634234,-1.3607654\PG=C01 [X(C8H12)]\\@


 MEMORIES ARE LIKE AN ENGLISH GRAMMER LESSON -
 PRESENT TENSE, AND PAST PERFECT.
 Job cpu time:       0 days  0 hours 13 minutes  9.4 seconds.
 Elapsed time:       0 days  0 hours  1 minutes  6.2 seconds.
 File lengths (MBytes):  RWF=     60 Int=      0 D2E=      0 Chk=     32 Scr=      1
 Normal termination of Gaussian 16 at Fri Jun 10 22:21:11 2022.
