 Entering Gaussian System, Link 0=g16
 Input=int_zmat_field_N50.gjf
 Output=int_zmat_field_N50.out
 Initial command:
 /software/gaussian/g16-a03/l1.exe "/local_scratch/11171329/Gau-26396.inp" -scrdir="/local_scratch/11171329/"
 Entering Link 1 = /software/gaussian/g16-a03/l1.exe PID=     26397.
  
 Copyright (c) 1988,1990,1992,1993,1995,1998,2003,2009,2016,
            Gaussian, Inc.  All Rights Reserved.
  
 This is part of the Gaussian(R) 16 program.  It is based on
 the Gaussian(R) 09 system (copyright 2009, Gaussian, Inc.),
 the Gaussian(R) 03 system (copyright 2003, Gaussian, Inc.),
 the Gaussian(R) 98 system (copyright 1998, Gaussian, Inc.),
 the Gaussian(R) 94 system (copyright 1995, Gaussian, Inc.),
 the Gaussian 92(TM) system (copyright 1992, Gaussian, Inc.),
 the Gaussian 90(TM) system (copyright 1990, Gaussian, Inc.),
 the Gaussian 88(TM) system (copyright 1988, Gaussian, Inc.),
 the Gaussian 86(TM) system (copyright 1986, Carnegie Mellon
 University), and the Gaussian 82(TM) system (copyright 1983,
 Carnegie Mellon University). Gaussian is a federally registered
 trademark of Gaussian, Inc.
  
 This software contains proprietary and confidential information,
 including trade secrets, belonging to Gaussian, Inc.
  
 This software is provided under written license and may be
 used, copied, transmitted, or stored only in accord with that
 written license.
  
 The following legend is applicable only to US Government
 contracts under FAR:
  
                    RESTRICTED RIGHTS LEGEND
  
 Use, reproduction and disclosure by the US Government is
 subject to restrictions as set forth in subparagraphs (a)
 and (c) of the Commercial Computer Software - Restricted
 Rights clause in FAR 52.227-19.
  
 Gaussian, Inc.
 340 Quinnipiac St., Bldg. 40, Wallingford CT 06492
  
  
 ---------------------------------------------------------------
 Warning -- This program may not be used in any manner that
 competes with the business of Gaussian, Inc. or will provide
 assistance to any competitor of Gaussian, Inc.  The licensee
 of this program is prohibited from giving any competitor of
 Gaussian, Inc. access to this program.  By using this program,
 the user acknowledges that Gaussian, Inc. is engaged in the
 business of creating and licensing software in the field of
 computational chemistry and represents and warrants to the
 licensee that it is not a competitor of Gaussian, Inc. and that
 it will not use this program in any manner prohibited above.
 ---------------------------------------------------------------
  

 Cite this work as:
 Gaussian 16, Revision A.03,
 M. J. Frisch, G. W. Trucks, H. B. Schlegel, G. E. Scuseria, 
 M. A. Robb, J. R. Cheeseman, G. Scalmani, V. Barone, 
 G. A. Petersson, H. Nakatsuji, X. Li, M. Caricato, A. V. Marenich, 
 J. Bloino, B. G. Janesko, R. Gomperts, B. Mennucci, H. P. Hratchian, 
 J. V. Ortiz, A. F. Izmaylov, J. L. Sonnenberg, D. Williams-Young, 
 F. Ding, F. Lipparini, F. Egidi, J. Goings, B. Peng, A. Petrone, 
 T. Henderson, D. Ranasinghe, V. G. Zakrzewski, J. Gao, N. Rega, 
 G. Zheng, W. Liang, M. Hada, M. Ehara, K. Toyota, R. Fukuda, 
 J. Hasegawa, M. Ishida, T. Nakajima, Y. Honda, O. Kitao, H. Nakai, 
 T. Vreven, K. Throssell, J. A. Montgomery, Jr., J. E. Peralta, 
 F. Ogliaro, M. J. Bearpark, J. J. Heyd, E. N. Brothers, K. N. Kudin, 
 V. N. Staroverov, T. A. Keith, R. Kobayashi, J. Normand, 
 K. Raghavachari, A. P. Rendell, J. C. Burant, S. S. Iyengar, 
 J. Tomasi, M. Cossi, J. M. Millam, M. Klene, C. Adamo, R. Cammi, 
 J. W. Ochterski, R. L. Martin, K. Morokuma, O. Farkas, 
 J. B. Foresman, and D. J. Fox, Gaussian, Inc., Wallingford CT, 2016.
 
 ******************************************
 Gaussian 16:  ES64L-G16RevA.03 25-Dec-2016
                10-Jun-2022 
 ******************************************
 %nprocshared=12
 Will use up to   12 processors via shared memory.
 %chk=checkpoint.chk
 %mem=12GB
 ----------------------------------------------------------------------
 # Opt=(Z-matrix, MaxStep=10) B3LYP/Def2TZVP geom=allcheckpoint guess=r
 ead Field=read NoSymm freq=noraman pop=none
 ----------------------------------------------------------------------
 1/8=10,10=7,18=40,26=3,29=7,38=1/1,3;
 2/12=2,15=1,29=3,40=1/2;
 3/5=44,7=101,11=2,14=-6,25=1,30=1,71=1,74=-5,116=-2/1,2,3;
 4/5=1/1;
 5/5=2,38=6/2;
 7/29=1,30=1/1,2,3,16;
 1/8=10,10=7,18=40,26=3/3(2);
 2/15=1,29=3/2;
 99//99;
 2/15=1,29=3/2;
 3/5=44,7=101,11=2,14=-2,25=1,30=1,71=1,74=-5/1,2,3;
 4/5=5,16=3,69=1/1;
 5/5=2,38=5/2;
 7/30=1/1,2,3,16;
 1/8=10,18=40,26=3/3(-5);
 2/15=1,29=3/2;
 99/9=1/99;
 Structure from the checkpoint file:  "checkpoint.chk"
 ------------------
 int_zmat_initalOpt
 ------------------
 Charge =  0 Multiplicity = 1
 Z-Matrix found in chk file.
 C
 C,1,R2
 C,1,R3,2,A3
 H,1,R4,2,A4,3,D4,0
 H,1,R5,2,A5,3,D5,0
 C,2,R6,1,A6,3,D6,0
 C,3,R7,1,A7,2,D7,0
 H,2,R8,1,A8,6,D8,0
 H,2,R9,1,A9,6,D9,0
 H,3,R10,1,A10,7,D10,0
 C,7,R11,3,A11,1,D11,0
 C,6,R12,2,A12,1,D12,0
 H,7,R13,3,A13,11,D13,0
 H,6,R14,2,A14,12,D14,0
 C,12,R15,6,A15,2,D15,0
 H,11,R16,7,A16,3,D16,0
 H,11,R17,7,A17,16,D17,0
 H,12,R18,6,A18,15,D18,0
 H,15,R19,12,A19,6,D19,0
 H,15,R20,12,A20,19,D20,0
      Variables:
 R2=1.54695282
 R3=1.54463181
 R4=1.08998281
 R5=1.09075561
 R6=1.55045103
 R7=1.49094689
 R8=1.09079842
 R9=1.0882467
 R10=1.09567059
 R11=1.32787132
 R12=1.49738031
 R13=1.08830229
 R14=1.09377512
 R15=1.32730069
 R16=1.08251135
 R17=1.08341312
 R18=1.08723115
 R19=1.08281382
 R20=1.08227514
 A3=88.87774509
 A4=111.18547761
 A5=117.91539264
 A6=89.50527309
 A7=121.85920356
 A8=112.03128495
 A9=117.36359047
 A10=109.28122201
 A11=126.33311176
 A12=117.54679799
 A13=115.23122529
 A14=114.9610571
 A15=127.56960017
 A16=121.36303089
 A17=122.00740787
 A18=114.42293396
 A19=122.68996709
 A20=120.97490451
 D4=-112.84533654
 D5=120.54792716
 D6=18.82982121
 D7=-143.77077681
 D8=-112.61435755
 D9=121.21392042
 D10=-127.49476856
 D11=-6.09882108
 D12=98.44938741
 D13=-179.43810225
 D14=129.21396534
 D15=14.05721538
 D16=-179.67401491
 D17=180.51676179
 D18=178.96061534
 D19=-0.65186518
 D20=179.44215211
 Recover connectivity data from disk.

 GradGradGradGradGradGradGradGradGradGradGradGradGradGradGradGradGradGrad
 Berny optimization.
 Initialization pass.
                       ----------------------------
                       !    Initial Parameters    !
                       ! (Angstroms and Degrees)  !
 ----------------------                            ----------------------
 !      Name          Value   Derivative information (Atomic Units)     !
 ------------------------------------------------------------------------
 !       R2          1.547    estimate D2E/DX2                          !
 !       R3          1.5446   estimate D2E/DX2                          !
 !       R4          1.09     estimate D2E/DX2                          !
 !       R5          1.0908   estimate D2E/DX2                          !
 !       R6          1.5505   estimate D2E/DX2                          !
 !       R7          1.4909   estimate D2E/DX2                          !
 !       R8          1.0908   estimate D2E/DX2                          !
 !       R9          1.0882   estimate D2E/DX2                          !
 !       R10         1.0957   estimate D2E/DX2                          !
 !       R11         1.3279   estimate D2E/DX2                          !
 !       R12         1.4974   estimate D2E/DX2                          !
 !       R13         1.0883   estimate D2E/DX2                          !
 !       R14         1.0938   estimate D2E/DX2                          !
 !       R15         1.3273   estimate D2E/DX2                          !
 !       R16         1.0825   estimate D2E/DX2                          !
 !       R17         1.0834   estimate D2E/DX2                          !
 !       R18         1.0872   estimate D2E/DX2                          !
 !       R19         1.0828   estimate D2E/DX2                          !
 !       R20         1.0823   estimate D2E/DX2                          !
 !       A3         88.8777   estimate D2E/DX2                          !
 !       A4        111.1855   estimate D2E/DX2                          !
 !       A5        117.9154   estimate D2E/DX2                          !
 !       A6         89.5053   estimate D2E/DX2                          !
 !       A7        121.8592   estimate D2E/DX2                          !
 !       A8        112.0313   estimate D2E/DX2                          !
 !       A9        117.3636   estimate D2E/DX2                          !
 !       A10       109.2812   estimate D2E/DX2                          !
 !       A11       126.3331   estimate D2E/DX2                          !
 !       A12       117.5468   estimate D2E/DX2                          !
 !       A13       115.2312   estimate D2E/DX2                          !
 !       A14       114.9611   estimate D2E/DX2                          !
 !       A15       127.5696   estimate D2E/DX2                          !
 !       A16       121.363    estimate D2E/DX2                          !
 !       A17       122.0074   estimate D2E/DX2                          !
 !       A18       114.4229   estimate D2E/DX2                          !
 !       A19       122.69     estimate D2E/DX2                          !
 !       A20       120.9749   estimate D2E/DX2                          !
 !       D4       -112.8453   estimate D2E/DX2                          !
 !       D5        120.5479   estimate D2E/DX2                          !
 !       D6         18.8298   estimate D2E/DX2                          !
 !       D7       -143.7708   estimate D2E/DX2                          !
 !       D8       -112.6144   estimate D2E/DX2                          !
 !       D9        121.2139   estimate D2E/DX2                          !
 !       D10      -127.4948   estimate D2E/DX2                          !
 !       D11        -6.0988   estimate D2E/DX2                          !
 !       D12        98.4494   estimate D2E/DX2                          !
 !       D13      -179.4381   estimate D2E/DX2                          !
 !       D14       129.214    estimate D2E/DX2                          !
 !       D15        14.0572   estimate D2E/DX2                          !
 !       D16      -179.674    estimate D2E/DX2                          !
 !       D17       180.5168   estimate D2E/DX2                          !
 !       D18       178.9606   estimate D2E/DX2                          !
 !       D19        -0.6519   estimate D2E/DX2                          !
 !       D20       179.4422   estimate D2E/DX2                          !
 ------------------------------------------------------------------------
 Trust Radius=1.00D-01 FncErr=1.00D-07 GrdErr=1.00D-06 EigMax=2.50D+02 EigMin=1.00D-04
 Number of steps in this run=     64 maximum allowed number of steps=    108.
 GradGradGradGradGradGradGradGradGradGradGradGradGradGradGradGradGradGrad

 ---------------------------------------------------------------------------------------------------
                            Z-MATRIX (ANGSTROMS AND DEGREES)
   CD    Cent   Atom    N1       Length/X        N2       Alpha/Y        N3        Beta/Z          J
 ---------------------------------------------------------------------------------------------------
      1      1  C 
      2      2  C        1   1.546953(     1)
      3      3  C        1   1.544632(     2)      2   88.878(    20)
      4      4  H        1   1.089983(     3)      2  111.185(    21)      3 -112.845(    38)      0
      5      5  H        1   1.090756(     4)      2  117.915(    22)      3  120.548(    39)      0
      6      6  C        2   1.550451(     5)      1   89.505(    23)      3   18.830(    40)      0
      7      7  C        3   1.490947(     6)      1  121.859(    24)      2 -143.771(    41)      0
      8      8  H        2   1.090798(     7)      1  112.031(    25)      6 -112.614(    42)      0
      9      9  H        2   1.088247(     8)      1  117.364(    26)      6  121.214(    43)      0
     10     10  H        3   1.095671(     9)      1  109.281(    27)      7 -127.495(    44)      0
     11     11  C        7   1.327871(    10)      3  126.333(    28)      1   -6.099(    45)      0
     12     12  C        6   1.497380(    11)      2  117.547(    29)      1   98.449(    46)      0
     13     13  H        7   1.088302(    12)      3  115.231(    30)     11 -179.438(    47)      0
     14     14  H        6   1.093775(    13)      2  114.961(    31)     12  129.214(    48)      0
     15     15  C       12   1.327301(    14)      6  127.570(    32)      2   14.057(    49)      0
     16     16  H       11   1.082511(    15)      7  121.363(    33)      3 -179.674(    50)      0
     17     17  H       11   1.083413(    16)      7  122.007(    34)     16  180.517(    51)      0
     18     18  H       12   1.087231(    17)      6  114.423(    35)     15  178.961(    52)      0
     19     19  H       15   1.082814(    18)     12  122.690(    36)      6   -0.652(    53)      0
     20     20  H       15   1.082275(    19)     12  120.975(    37)     19  179.442(    54)      0
 ---------------------------------------------------------------------------------------------------
                         Z-Matrix orientation:                         
 ---------------------------------------------------------------------
 Center     Atomic      Atomic             Coordinates (Angstroms)
 Number     Number       Type             X           Y           Z
 ---------------------------------------------------------------------
      1          6           0        0.000000    0.000000    0.000000
      2          6           0        0.000000    0.000000    1.546953
      3          6           0        1.544336    0.000000    0.030253
      4          1           0       -0.394580    0.936593   -0.393907
      5          1           0       -0.489878   -0.830059   -0.510656
      6          6           0        1.467418    0.500402    1.533565
      7          6           0        2.351163    0.748424   -0.975636
      8          1           0       -0.066740   -1.008942    1.956125
      9          1           0       -0.740841    0.620676    2.047150
     10          1           0        1.905615   -1.033961    0.060176
     11          6           0        1.883848    1.383490   -2.044070
     12          6           0        1.700573    1.967383    1.722655
     13          1           0        3.425038    0.752241   -0.799057
     14          1           0        2.146314   -0.042535    2.197391
     15          6           0        0.834278    2.875429    2.154758
     16          1           0        2.546261    1.899395   -2.727358
     17          1           0        0.825553    1.420117   -2.273095
     18          1           0        2.709424    2.296405    1.485939
     19          1           0       -0.186986    2.630497    2.418413
     20          1           0        1.124523    3.911671    2.270002
 ---------------------------------------------------------------------
                    Distance matrix (angstroms):
                    1          2          3          4          5
     1  C    0.000000
     2  C    1.546953   0.000000
     3  C    1.544632   2.164567   0.000000
     4  H    1.089983   2.190853   2.194655   0.000000
     5  H    1.090756   2.272165   2.262654   1.773068   0.000000
     6  C    2.180721   1.550451   1.586275   2.715225   3.127296
     7  C    2.653295   3.528677   1.490947   2.812992   3.283189
     8  H    2.202009   1.090798   2.706015   3.068426   2.509194
     9  H    2.263825   1.088247   3.110489   2.485650   2.951268
    10  H    2.168886   2.628868   1.095671   3.062706   2.470994
    11  C    3.105020   4.284667   2.516372   2.848506   3.589670
    12  C    3.119308   2.606418   2.599852   3.151512   4.196598
    13  H    3.596560   4.219066   2.188759   3.845467   4.232424
    14  H    3.071970   2.243110   2.249594   3.758943   3.860469
    15  C    3.688779   3.055084   3.644969   3.429995   4.752732
    16  H    4.186839   5.325493   3.495135   3.875632   4.645624
    17  H    2.804502   4.158249   2.799785   2.292132   3.146402
    18  H    3.849996   3.552208   2.958028   3.875274   4.898643
    19  H    3.578156   2.777395   3.952252   3.289613   4.543857
    20  H    4.660325   4.133826   4.527017   4.272607   5.729079
                    6          7          8          9         10
     6  C    0.000000
     7  C    2.671818   0.000000
     8  H    2.193245   4.186863   0.000000
     9  H    2.270384   4.325973   1.765886   0.000000
    10  H    2.171903   2.109104   2.735952   3.699948   0.000000
    11  C    3.708467   1.327871   5.052731   4.920259   3.205058
    12  C    1.497380   3.031485   3.469354   2.807030   3.437142
    13  H    3.055622   1.088302   4.783860   5.047054   2.497488
    14  H    1.093775   3.276534   2.426883   2.966157   2.368237
    15  C    2.535251   4.077310   3.992447   2.752543   4.562715
    16  H    4.612651   2.105071   6.100919   5.935999   4.096993
    17  H    3.968442   2.112359   4.958107   4.664463   3.554320
    18  H    2.184141   2.929837   4.342060   3.876513   3.710829
    19  H    2.838541   4.637237   3.670653   2.117539   4.834099
    20  H    3.506660   4.695204   5.072481   3.789445   5.472907
                   11         12         13         14         15
    11  C    0.000000
    12  C    3.816115   0.000000
    13  H    2.079374   3.287763   0.000000
    14  H    4.482457   2.112778   3.353432   0.000000
    15  C    4.577950   1.327301   4.465981   3.199652   0.000000
    16  H    1.082511   4.530168   2.409680   5.308879   5.264844
    17  H    1.083413   4.126885   3.062054   4.885592   4.660889
    18  H    3.738442   1.087231   2.849167   2.508764   2.073345
    19  H    5.075148   2.118178   5.189093   3.555030   1.082814
    20  H    5.057616   2.100399   4.969255   4.084736   1.082275
                   16         17         18         19         20
    16  H    0.000000
    17  H    1.843067   0.000000
    18  H    4.235104   4.295019   0.000000
    19  H    5.872317   4.949798   3.061097   0.000000
    20  H    5.571732   5.190082   2.394943   1.839425   0.000000
 Symmetry turned off by external request.
 Stoichiometry    C8H12
 Framework group  C1[X(C8H12)]
 Deg. of freedom    54
 Full point group                 C1      NOp   1
 Rotational constants (GHZ):           2.7966951           1.6958468           1.3166769
 Standard basis: def2TZVP (5D, 7F)
 The following finite field(s) will be applied:
 An electric field of             -0.0013 -0.0042 -0.0023
   320 basis functions,   504 primitive gaussians,   360 cartesian basis functions
    30 alpha electrons       30 beta electrons
       nuclear repulsion energy       360.4180126993 Hartrees.
 NAtoms=   20 NActive=   20 NUniq=   20 SFac= 1.00D+00 NAtFMM=   60 NAOKFM=F Big=F
 Integral buffers will be    131072 words long.
 Raffenetti 2 integral format.
 Two-electron integral symmetry is turned off.
 One-electron integrals computed using PRISM.
   1 Symmetry operations used in ECPInt.
 ECPInt:  NShTT=    9316 NPrTT=   27240 LenC2=    9174 LenP2D=   21656.
 LDataN:  DoStor=T MaxTD1= 6 Len=  172
 NBasis=   320 RedAO= T EigKep=  3.44D-05  NBF=   320
 NBsUse=   320 1.00D-06 EigRej= -1.00D+00 NBFU=   320
 The nuclear repulsion energy is now       359.6598158866 hartrees.
 Initial guess from the checkpoint file:  "checkpoint.chk"
 B after Tr=     0.000000   -0.000000    0.000000
         Rot=    1.000000    0.000000   -0.000000    0.000000 Ang=   0.00 deg.
 Requested convergence on RMS density matrix=1.00D-08 within 128 cycles.
 Requested convergence on MAX density matrix=1.00D-06.
 Requested convergence on             energy=1.00D-06.
 No special actions if energy rises.
 SCF Done:  E(RB3LYP) =  -312.117324213     A.U. after   10 cycles
            NFock= 10  Conv=0.42D-08     -V/T= 2.0056
   1 Symmetry operations used in ECPInt.
 ECPInt:  NShTT=    9316 NPrTT=   27240 LenC2=    9174 LenP2D=   21656.
 LDataN:  DoStor=T MaxTD1= 7 Len=  274
 Calling FoFJK, ICntrl=      2127 FMM=F ISym2X=0 I1Cent= 0 IOpClX= 0 NMat=1 NMatS=1 NMatT=0.
 -------------------------------------------------------------------
 Center     Atomic                   Forces (Hartrees/Bohr)
 Number     Number              X              Y              Z
 -------------------------------------------------------------------
      1        6           0.000226968    0.000199191    0.000257603
      2        6          -0.000219240    0.000326026    0.000058267
      3        6           0.000054522    0.000313788    0.000025920
      4        1           0.000021244    0.000007201    0.000053674
      5        1          -0.000256433   -0.000346514   -0.000280004
      6        6           0.000094715   -0.000016991    0.000077378
      7        6           0.000045927   -0.000455966   -0.000169565
      8        1          -0.000003611   -0.000275670    0.000127974
      9        1           0.000162028   -0.000011084   -0.000045955
     10        1           0.000131897   -0.000318303    0.000022090
     11        6           0.000168255   -0.000521158   -0.000505767
     12        6          -0.000076574    0.000767052   -0.000210791
     13        1          -0.000113507    0.000246953    0.000141323
     14        1          -0.000125036   -0.000087741   -0.000059224
     15        6           0.000212407   -0.000220123   -0.000385298
     16        1          -0.000040088    0.000281555    0.000206405
     17        1          -0.000113459    0.000251381    0.000179848
     18        1          -0.000065666   -0.000065070    0.000190829
     19        1          -0.000025611    0.000098154    0.000169225
     20        1          -0.000078738   -0.000172684    0.000146067
 -------------------------------------------------------------------
 Cartesian Forces:  Max     0.000767052 RMS     0.000227645
 -----------------------------------------------------------------------------------------------
                       Internal Coordinate Forces (Hartree/Bohr or radian)
  Cent   Atom   N1       Length/X         N2         Alpha/Y        N3         Beta/Z          J
 -----------------------------------------------------------------------------------------------
      1  C 
      2  C        1   0.000068(     1)
      3  C        1   0.000132(     2)      2   0.000359(    20)
      4  H        1  -0.000021(     3)      2  -0.000102(    21)      3   0.000043(    38)     0
      5  H        1   0.000510(     4)      2   0.000096(    22)      3   0.000081(    39)     0
      6  C        2   0.000037(     5)      1   0.000036(    23)      3   0.000859(    40)     0
      7  C        3  -0.000028(     6)      1  -0.000141(    24)      2  -0.000120(    41)     0
      8  H        2   0.000303(     7)      1   0.000032(    25)      6   0.000028(    42)     0
      9  H        2  -0.000138(     8)      1   0.000040(    26)      6  -0.000175(    43)     0
     10  H        3   0.000344(     9)      1   0.000041(    27)      7  -0.000024(    44)     0
     11  C        7   0.000097(    10)      3   0.000072(    28)      1  -0.000117(    45)     0
     12  C        6   0.000382(    11)      2  -0.000359(    29)      1   0.000108(    46)     0
     13  H        7  -0.000088(    12)      3   0.000011(    30)     11  -0.000546(    47)     0
     14  H        6  -0.000070(    13)      2  -0.000266(    31)     12   0.000138(    48)     0
     15  C       12  -0.000295(    14)      6  -0.000207(    32)      2  -0.000069(    49)     0
     16  H       11  -0.000021(    15)      7  -0.000016(    33)      3  -0.000062(    50)     0
     17  H       11   0.000081(    16)      7  -0.000067(    34)     16   0.000551(    51)     0
     18  H       12  -0.000122(    17)      6   0.000001(    35)     15  -0.000324(    52)     0
     19  H       15   0.000043(    18)     12   0.000281(    36)      6  -0.000026(    53)     0
     20  H       15  -0.000171(    19)     12   0.000164(    37)     19  -0.000258(    54)     0
 -----------------------------------------------------------------------------------------------
 Internal  Forces:  Max     0.000858746 RMS     0.000234683

 GradGradGradGradGradGradGradGradGradGradGradGradGradGradGradGradGradGrad
 Berny optimization.
 Search for a local minimum.
 Step number   1 out of a maximum of   64
 All quantities printed in internal units (Hartrees-Bohrs-Radians)
 Second derivative matrix not updated -- first step.
 ITU=  0
     Eigenvalues ---    0.03231   0.03385   0.04756   0.05077   0.07164
     Eigenvalues ---    0.08862   0.10660   0.11691   0.12552   0.13069
     Eigenvalues ---    0.15962   0.16309   0.17205   0.17396   0.18475
     Eigenvalues ---    0.18541   0.19858   0.20478   0.20801   0.22614
     Eigenvalues ---    0.23222   0.25378   0.26485   0.27866   0.30181
     Eigenvalues ---    0.31264   0.32654   0.33346   0.34165   0.34380
     Eigenvalues ---    0.34721   0.34725   0.34815   0.35010   0.35016
     Eigenvalues ---    0.35135   0.35585   0.35656   0.35693   0.35721
     Eigenvalues ---    0.38096   0.41868   0.41984   0.43644   0.48335
     Eigenvalues ---    0.49992   0.51636   0.54197   0.59339   0.60011
     Eigenvalues ---    0.60149   0.86161   1.13685   4.94384
 RFO step:  Lambda=-1.86658780D-05 EMin= 3.23089700D-02
 Linear search not attempted -- first point.
 Variable       Old X    -DE/DX   Delta X   Delta X   Delta X     New X
                                 (Linear)    (Quad)   (Total)
    R2        2.92332   0.00007   0.00000   0.00009   0.00009   2.92341
    R3        2.91893   0.00013   0.00000   0.00010   0.00010   2.91903
    R4        2.05977  -0.00002   0.00000  -0.00006  -0.00006   2.05971
    R5        2.06123   0.00051   0.00000   0.00147   0.00147   2.06270
    R6        2.92993   0.00004   0.00000   0.00039   0.00039   2.93032
    R7        2.81748  -0.00003   0.00000  -0.00008  -0.00008   2.81740
    R8        2.06131   0.00030   0.00000   0.00088   0.00088   2.06219
    R9        2.05649  -0.00014   0.00000  -0.00040  -0.00040   2.05609
   R10        2.07052   0.00034   0.00000   0.00101   0.00101   2.07153
   R11        2.50931   0.00010   0.00000   0.00016   0.00016   2.50948
   R12        2.82964   0.00038   0.00000   0.00116   0.00116   2.83080
   R13        2.05659  -0.00009   0.00000  -0.00025  -0.00025   2.05635
   R14        2.06694  -0.00007   0.00000  -0.00019  -0.00019   2.06674
   R15        2.50823  -0.00029   0.00000  -0.00049  -0.00049   2.50775
   R16        2.04565  -0.00002   0.00000  -0.00006  -0.00006   2.04559
   R17        2.04735   0.00008   0.00000   0.00023   0.00023   2.04758
   R18        2.05457  -0.00012   0.00000  -0.00034  -0.00034   2.05423
   R19        2.04622   0.00004   0.00000   0.00012   0.00012   2.04634
   R20        2.04520  -0.00017   0.00000  -0.00048  -0.00048   2.04472
    A3        1.55121   0.00036   0.00000  -0.00022  -0.00022   1.55099
    A4        1.94055  -0.00010   0.00000  -0.00042  -0.00042   1.94013
    A5        2.05801   0.00010   0.00000   0.00043   0.00043   2.05844
    A6        1.56216   0.00004   0.00000  -0.00130  -0.00130   1.56087
    A7        2.12684  -0.00014   0.00000  -0.00035  -0.00035   2.12649
    A8        1.95531   0.00003   0.00000   0.00081   0.00081   1.95612
    A9        2.04838   0.00004   0.00000   0.00019   0.00019   2.04857
   A10        1.90732   0.00004   0.00000   0.00070   0.00070   1.90802
   A11        2.20493   0.00007   0.00000   0.00023   0.00023   2.20516
   A12        2.05158  -0.00036   0.00000   0.00029   0.00029   2.05187
   A13        2.01116   0.00001   0.00000  -0.00009  -0.00009   2.01108
   A14        2.00645  -0.00027   0.00000  -0.00129  -0.00129   2.00516
   A15        2.22651  -0.00021   0.00000   0.00002   0.00002   2.22653
   A16        2.11818  -0.00002   0.00000   0.00004   0.00004   2.11822
   A17        2.12943  -0.00007   0.00000  -0.00026  -0.00026   2.12917
   A18        1.99706   0.00000   0.00000  -0.00020  -0.00020   1.99686
   A19        2.14134   0.00028   0.00000   0.00109   0.00109   2.14243
   A20        2.11141   0.00016   0.00000  -0.00026  -0.00026   2.11115
    D4       -1.96952   0.00004   0.00000   0.00024   0.00024  -1.96928
    D5        2.10396   0.00008   0.00000   0.00032   0.00032   2.10428
    D6        0.32864   0.00086   0.00000   0.00481   0.00481   0.33345
    D7       -2.50927  -0.00012   0.00000  -0.00413  -0.00413  -2.51341
    D8       -1.96549   0.00003   0.00000  -0.00015  -0.00015  -1.96565
    D9        2.11558  -0.00017   0.00000  -0.00191  -0.00191   2.11367
   D10       -2.22520  -0.00002   0.00000  -0.00079  -0.00079  -2.22600
   D11       -0.10644  -0.00012   0.00000   0.00103   0.00103  -0.10542
   D12        1.71827   0.00011   0.00000  -0.00406  -0.00406   1.71420
   D13       -3.13179  -0.00055   0.00000  -0.00617  -0.00617  -3.13796
   D14        2.25521   0.00014   0.00000   0.00044   0.00044   2.25565
   D15        0.24534  -0.00007   0.00000   0.00133   0.00133   0.24668
   D16       -3.13590  -0.00006   0.00000  -0.00810  -0.00810  -3.14400
   D17        3.15061   0.00055   0.00000   0.00917   0.00917   3.15978
   D18        3.12345  -0.00032   0.00000  -0.00440  -0.00440   3.11905
   D19       -0.01138  -0.00003   0.00000  -0.00089  -0.00089  -0.01227
   D20        3.13186  -0.00026   0.00000  -0.00400  -0.00400   3.12785
         Item               Value     Threshold  Converged?
 Maximum Force            0.000859     0.000450     NO 
 RMS     Force            0.000235     0.000300     YES
 Maximum Displacement     0.009170     0.001800     NO 
 RMS     Displacement     0.002361     0.001200     NO 
 Predicted change in Energy=-9.332938D-06
 GradGradGradGradGradGradGradGradGradGradGradGradGradGradGradGradGradGrad

 ---------------------------------------------------------------------------------------------------
                            Z-MATRIX (ANGSTROMS AND DEGREES)
   CD    Cent   Atom    N1       Length/X        N2       Alpha/Y        N3        Beta/Z          J
 ---------------------------------------------------------------------------------------------------
      1      1  C 
      2      2  C        1   1.547001(     1)
      3      3  C        1   1.544684(     2)      2   88.865(    20)
      4      4  H        1   1.089951(     3)      2  111.161(    21)      3 -112.832(    38)      0
      5      5  H        1   1.091533(     4)      2  117.940(    22)      3  120.566(    39)      0
      6      6  C        2   1.550656(     5)      1   89.431(    23)      3   19.105(    40)      0
      7      7  C        3   1.490903(     6)      1  121.839(    24)      2 -144.008(    41)      0
      8      8  H        2   1.091262(     7)      1  112.078(    25)      6 -112.623(    42)      0
      9      9  H        2   1.088037(     8)      1  117.374(    26)      6  121.104(    43)      0
     10     10  H        3   1.096206(     9)      1  109.321(    27)      7 -127.540(    44)      0
     11     11  C        7   1.327957(    10)      3  126.347(    28)      1   -6.040(    45)      0
     12     12  C        6   1.497994(    11)      2  117.564(    29)      1   98.217(    46)      0
     13     13  H        7   1.088171(    12)      3  115.226(    30)     11 -179.792(    47)      0
     14     14  H        6   1.093672(    13)      2  114.887(    31)     12  129.239(    48)      0
     15     15  C       12   1.327043(    14)      6  127.571(    32)      2   14.133(    49)      0
     16     16  H       11   1.082482(    15)      7  121.365(    33)      3 -180.138(    50)      0
     17     17  H       11   1.083534(    16)      7  121.993(    34)     16  181.042(    51)      0
     18     18  H       12   1.087052(    17)      6  114.412(    35)     15  178.709(    52)      0
     19     19  H       15   1.082876(    18)     12  122.752(    36)      6   -0.703(    53)      0
     20     20  H       15   1.082021(    19)     12  120.960(    37)     19  179.213(    54)      0
 ---------------------------------------------------------------------------------------------------
                         Z-Matrix orientation:                         
 ---------------------------------------------------------------------
 Center     Atomic      Atomic             Coordinates (Angstroms)
 Number     Number       Type             X           Y           Z
 ---------------------------------------------------------------------
      1          6           0        0.000000    0.000000    0.000000
      2          6           0        0.000000    0.000000    1.547001
      3          6           0        1.544381    0.000000    0.030600
      4          1           0       -0.394407    0.936815   -0.393466
      5          1           0       -0.490382   -0.830304   -0.511435
      6          6           0        1.465173    0.507510    1.531604
      7          6           0        2.351032    0.744336   -0.978395
      8          1           0       -0.062052   -1.009340    1.957165
      9          1           0       -0.742419    0.618351    2.047281
     10          1           0        1.906452   -1.034088    0.065721
     11          6           0        1.883723    1.375964   -2.048973
     12          6           0        1.691728    1.976935    1.714499
     13          1           0        3.424295    0.753197   -0.799103
     14          1           0        2.145586   -0.030357    2.197829
     15          6           0        0.821881    2.882485    2.143905
     16          1           0        2.545449    1.895239   -2.730325
     17          1           0        0.825109    1.413196   -2.276999
     18          1           0        2.699812    2.308785    1.479292
     19          1           0       -0.198389    2.635095    2.409362
     20          1           0        1.108860    3.919418    2.258726
 ---------------------------------------------------------------------
                    Distance matrix (angstroms):
                    1          2          3          4          5
     1  C    0.000000
     2  C    1.547001   0.000000
     3  C    1.544684   2.164390   0.000000
     4  H    1.089951   2.190569   2.194618   0.000000
     5  H    1.091533   2.273112   2.263507   1.773650   0.000000
     6  C    2.179474   1.550656   1.586460   2.710762   3.128569
     7  C    2.653044   3.529732   1.490903   2.813649   3.281947
     8  H    2.202978   1.091262   2.703895   3.069763   2.511873
     9  H    2.263825   1.088037   3.111079   2.485915   2.951126
    10  H    2.169842   2.626421   1.096206   3.064190   2.473751
    11  C    3.104832   4.286341   2.516556   2.850164   3.587202
    12  C    3.116042   2.607349   2.601057   3.142821   4.194874
    13  H    3.596062   4.218685   2.188558   3.844573   4.232602
    14  H    3.071630   2.242329   2.249278   3.755236   3.863722
    15  C    3.685178   3.056224   3.646476   3.421000   4.749491
    16  H    4.186396   5.326045   3.495250   3.875853   4.644171
    17  H    2.804042   4.159436   2.799908   2.293873   3.143410
    18  H    3.848087   3.553035   2.960442   3.868296   4.898388
    19  H    3.576047   2.779703   3.954679   3.283051   4.541509
    20  H    4.657601   4.134968   4.529466   4.264957   5.726362
                    6          7          8          9         10
     6  C    0.000000
     7  C    2.672251   0.000000
     8  H    2.194163   4.185196   0.000000
     9  H    2.269730   4.328975   1.766465   0.000000
    10  H    2.172571   2.109650   2.730051   3.697790   0.000000
    11  C    3.708090   1.327957   5.052214   4.924419   3.206369
    12  C    1.497994   3.034083   3.471666   2.807413   3.439598
    13  H    3.054621   1.088171   4.781021   5.047929   2.499231
    14  H    1.093672   3.275783   2.426931   2.963792   2.368659
    15  C    2.535595   4.081512   3.995311   2.753666   4.564503
    16  H    4.610512   2.105145   6.099853   5.938521   4.099652
    17  H    3.966788   2.112389   4.958214   4.667796   3.556240
    18  H    2.184413   2.934173   4.343525   3.876743   3.715159
    19  H    2.839809   4.642350   3.674911   2.119983   4.835899
    20  H    3.506676   4.701392   5.074901   3.790645   5.475641
                   11         12         13         14         15
    11  C    0.000000
    12  C    3.815986   0.000000
    13  H    2.079273   3.288999   0.000000
    14  H    4.481254   2.113957   3.351216   0.000000
    15  C    4.580103   1.327043   4.468525   3.199961   0.000000
    16  H    1.082482   4.526806   2.409616   5.306082   5.263408
    17  H    1.083534   4.123213   3.061951   4.883809   4.658671
    18  H    3.739627   1.087052   2.852334   2.508994   2.073033
    19  H    5.079110   2.118620   5.192266   3.555784   1.082876
    20  H    5.062198   2.099800   4.973581   4.084021   1.082021
                   16         17         18         19         20
    16  H    0.000000
    17  H    1.843215   0.000000
    18  H    4.232697   4.292588   0.000000
    19  H    5.873025   4.950007   3.061222   0.000000
    20  H    5.572407   5.189843   2.394323   1.838770   0.000000
 Symmetry turned off by external request.
 Stoichiometry    C8H12
 Framework group  C1[X(C8H12)]
 Deg. of freedom    54
 Full point group                 C1      NOp   1
 Rotational constants (GHZ):           2.7980386           1.6946682           1.3163885
 Standard basis: def2TZVP (5D, 7F)
 The following finite field(s) will be applied:
 An electric field of             -0.0013 -0.0042 -0.0023
   320 basis functions,   504 primitive gaussians,   360 cartesian basis functions
    30 alpha electrons       30 beta electrons
       nuclear repulsion energy       360.3963735223 Hartrees.
 NAtoms=   20 NActive=   20 NUniq=   20 SFac= 1.00D+00 NAtFMM=   60 NAOKFM=F Big=F
 Integral buffers will be    131072 words long.
 Raffenetti 2 integral format.
 Two-electron integral symmetry is turned off.
 One-electron integrals computed using PRISM.
   1 Symmetry operations used in ECPInt.
 ECPInt:  NShTT=    9316 NPrTT=   27240 LenC2=    9174 LenP2D=   21654.
 LDataN:  DoStor=T MaxTD1= 6 Len=  172
 NBasis=   320 RedAO= T EigKep=  3.47D-05  NBF=   320
 NBsUse=   320 1.00D-06 EigRej= -1.00D+00 NBFU=   320
 The nuclear repulsion energy is now       359.6387136012 hartrees.
 Initial guess from the checkpoint file:  "checkpoint.chk"
 B after Tr=     0.000579   -0.007058   -0.001791
         Rot=    0.999997    0.001923    0.000545   -0.001452 Ang=   0.28 deg.
 Requested convergence on RMS density matrix=1.00D-08 within 128 cycles.
 Requested convergence on MAX density matrix=1.00D-06.
 Requested convergence on             energy=1.00D-06.
 No special actions if energy rises.
 SCF Done:  E(RB3LYP) =  -312.117335084     A.U. after    8 cycles
            NFock=  8  Conv=0.48D-08     -V/T= 2.0056
   1 Symmetry operations used in ECPInt.
 ECPInt:  NShTT=    9316 NPrTT=   27240 LenC2=    9174 LenP2D=   21654.
 LDataN:  DoStor=T MaxTD1= 7 Len=  274
 Calling FoFJK, ICntrl=      2127 FMM=F ISym2X=0 I1Cent= 0 IOpClX= 0 NMat=1 NMatS=1 NMatT=0.
 -------------------------------------------------------------------
 Center     Atomic                   Forces (Hartrees/Bohr)
 Number     Number              X              Y              Z
 -------------------------------------------------------------------
      1        6          -0.000010081   -0.000624999    0.000038286
      2        6          -0.000075707    0.000539516   -0.000060834
      3        6          -0.000063047    0.000284496   -0.000092453
      4        1           0.000061319    0.000023221    0.000052604
      5        1          -0.000071563    0.000003668   -0.000064585
      6        6           0.000175731   -0.000226412    0.000093524
      7        6          -0.000003826   -0.000082666   -0.000007881
      8        1           0.000066281    0.000013678   -0.000035176
      9        1          -0.000010938    0.000005750    0.000016643
     10        1          -0.000058004   -0.000020597    0.000071222
     11        6           0.000031262   -0.000197355   -0.000162998
     12        6           0.000009073    0.000080391   -0.000073882
     13        1           0.000002740    0.000078761    0.000042422
     14        1           0.000020691    0.000065506    0.000009841
     15        6           0.000001134   -0.000143169   -0.000111962
     16        1          -0.000008451    0.000093249    0.000068495
     17        1          -0.000018049    0.000079038    0.000068884
     18        1          -0.000000718   -0.000018269    0.000050518
     19        1          -0.000005501    0.000014470    0.000056273
     20        1          -0.000042345    0.000031725    0.000041059
 -------------------------------------------------------------------
 Cartesian Forces:  Max     0.000624999 RMS     0.000133875
 -----------------------------------------------------------------------------------------------
                       Internal Coordinate Forces (Hartree/Bohr or radian)
  Cent   Atom   N1       Length/X         N2         Alpha/Y        N3         Beta/Z          J
 -----------------------------------------------------------------------------------------------
      1  C 
      2  C        1  -0.000014(     1)
      3  C        1  -0.000118(     2)      2  -0.000091(    20)
      4  H        1  -0.000021(     3)      2  -0.000099(    21)      3   0.000126(    38)     0
      5  H        1   0.000060(     4)      2   0.000086(    22)      3   0.000116(    39)     0
      6  C        2   0.000085(     5)      1   0.000235(    23)      3  -0.000093(    40)     0
      7  C        3  -0.000019(     6)      1  -0.000001(    24)      2  -0.000062(    41)     0
      8  H        2  -0.000030(     7)      1  -0.000053(    25)      6   0.000125(    42)     0
      9  H        2   0.000018(     8)      1   0.000019(    26)      6   0.000005(    43)     0
     10  H        3   0.000003(     9)      1  -0.000126(    27)      7  -0.000140(    44)     0
     11  C        7   0.000007(    10)      3  -0.000009(    28)      1  -0.000056(    45)     0
     12  C        6  -0.000045(    11)      2  -0.000374(    29)      1  -0.000092(    46)     0
     13  H        7   0.000010(    12)      3   0.000017(    30)     11  -0.000165(    47)     0
     14  H        6  -0.000013(    13)      2   0.000106(    31)     12  -0.000084(    48)     0
     15  C       12  -0.000040(    14)      6  -0.000317(    32)      2  -0.000031(    49)     0
     16  H       11  -0.000004(    15)      7  -0.000014(    33)      3  -0.000020(    50)     0
     17  H       11   0.000006(    16)      7  -0.000035(    34)     16   0.000182(    51)     0
     18  H       12  -0.000017(    17)      6  -0.000011(    35)     15  -0.000095(    52)     0
     19  H       15   0.000016(    18)     12   0.000056(    36)      6   0.000047(    53)     0
     20  H       15   0.000024(    19)     12   0.000121(    37)     19  -0.000037(    54)     0
 -----------------------------------------------------------------------------------------------
 Internal  Forces:  Max     0.000374465 RMS     0.000102986

 GradGradGradGradGradGradGradGradGradGradGradGradGradGradGradGradGradGrad
 Berny optimization.
 Search for a local minimum.
 Step number   2 out of a maximum of   64
 All quantities printed in internal units (Hartrees-Bohrs-Radians)
 Update second derivatives using D2CorN and points    1    2
 DE= -1.09D-05 DEPred=-9.33D-06 R= 1.16D+00
 TightC=F SS=  1.41D+00  RLast= 1.74D-02 DXNew= 1.6818D-01 5.2051D-02
 Trust test= 1.16D+00 RLast= 1.74D-02 DXMaxT set to 1.00D-01
 ITU=  1  0
     Eigenvalues ---    0.02834   0.03315   0.04316   0.05112   0.07231
     Eigenvalues ---    0.08871   0.10624   0.11664   0.12534   0.13045
     Eigenvalues ---    0.15962   0.16307   0.17205   0.17388   0.18470
     Eigenvalues ---    0.18544   0.19852   0.20481   0.20810   0.22556
     Eigenvalues ---    0.23171   0.25389   0.26508   0.27875   0.30181
     Eigenvalues ---    0.31264   0.32672   0.33346   0.34164   0.34379
     Eigenvalues ---    0.34698   0.34729   0.34815   0.35010   0.35019
     Eigenvalues ---    0.35133   0.35585   0.35656   0.35693   0.35725
     Eigenvalues ---    0.38089   0.41868   0.41982   0.43635   0.48334
     Eigenvalues ---    0.49977   0.51613   0.54198   0.59298   0.60011
     Eigenvalues ---    0.60146   0.86218   1.13684   4.94381
 RFO step:  Lambda=-2.94384664D-06 EMin= 2.83409443D-02
 Quartic linear search produced a step of  0.19615.
 Variable       Old X    -DE/DX   Delta X   Delta X   Delta X     New X
                                 (Linear)    (Quad)   (Total)
    R2        2.92341  -0.00001   0.00002  -0.00017  -0.00015   2.92326
    R3        2.91903  -0.00012   0.00002  -0.00021  -0.00019   2.91884
    R4        2.05971  -0.00002  -0.00001  -0.00006  -0.00008   2.05963
    R5        2.06270   0.00006   0.00029  -0.00005   0.00024   2.06293
    R6        2.93032   0.00008   0.00008   0.00008   0.00015   2.93047
    R7        2.81740  -0.00002  -0.00002  -0.00006  -0.00007   2.81733
    R8        2.06219  -0.00003   0.00017  -0.00027  -0.00010   2.06209
    R9        2.05609   0.00002  -0.00008   0.00014   0.00006   2.05615
   R10        2.07153   0.00000   0.00020  -0.00018   0.00002   2.07155
   R11        2.50948   0.00001   0.00003  -0.00002   0.00002   2.50949
   R12        2.83080  -0.00004   0.00023  -0.00038  -0.00016   2.83064
   R13        2.05635   0.00001  -0.00005   0.00008   0.00004   2.05638
   R14        2.06674  -0.00001  -0.00004  -0.00001  -0.00005   2.06669
   R15        2.50775  -0.00004  -0.00010   0.00001  -0.00009   2.50766
   R16        2.04559  -0.00000  -0.00001   0.00000  -0.00001   2.04558
   R17        2.04758   0.00001   0.00004  -0.00002   0.00002   2.04761
   R18        2.05423  -0.00002  -0.00007   0.00000  -0.00006   2.05417
   R19        2.04634   0.00002   0.00002   0.00003   0.00005   2.04639
   R20        2.04472   0.00002  -0.00009   0.00017   0.00008   2.04480
    A3        1.55099  -0.00009  -0.00004   0.00002  -0.00002   1.55096
    A4        1.94013  -0.00010  -0.00008  -0.00081  -0.00090   1.93923
    A5        2.05844   0.00009   0.00008   0.00079   0.00087   2.05931
    A6        1.56087   0.00024  -0.00025   0.00046   0.00021   1.56107
    A7        2.12649  -0.00000  -0.00007   0.00022   0.00015   2.12664
    A8        1.95612  -0.00005   0.00016  -0.00048  -0.00032   1.95581
    A9        2.04857   0.00002   0.00004   0.00028   0.00032   2.04888
   A10        1.90802  -0.00013   0.00014  -0.00062  -0.00048   1.90754
   A11        2.20516  -0.00001   0.00005  -0.00011  -0.00007   2.20510
   A12        2.05187  -0.00037   0.00006  -0.00134  -0.00128   2.05059
   A13        2.01108   0.00002  -0.00002   0.00013   0.00011   2.01119
   A14        2.00516   0.00011  -0.00025   0.00114   0.00088   2.00604
   A15        2.22653  -0.00032   0.00000  -0.00082  -0.00081   2.22572
   A16        2.11822  -0.00001   0.00001   0.00000   0.00001   2.11823
   A17        2.12917  -0.00004  -0.00005  -0.00011  -0.00016   2.12901
   A18        1.99686  -0.00001  -0.00004   0.00033   0.00030   1.99715
   A19        2.14243   0.00006   0.00021  -0.00002   0.00020   2.14263
   A20        2.11115   0.00012  -0.00005   0.00027   0.00022   2.11136
    D4       -1.96928   0.00013   0.00005   0.00120   0.00125  -1.96803
    D5        2.10428   0.00012   0.00006   0.00133   0.00139   2.10567
    D6        0.33345  -0.00009   0.00094  -0.00136  -0.00041   0.33304
    D7       -2.51341  -0.00006  -0.00081   0.00107   0.00026  -2.51314
    D8       -1.96565   0.00012  -0.00003   0.00084   0.00081  -1.96484
    D9        2.11367   0.00000  -0.00038   0.00079   0.00042   2.11409
   D10       -2.22600  -0.00014  -0.00016  -0.00045  -0.00060  -2.22660
   D11       -0.10542  -0.00006   0.00020   0.00026   0.00046  -0.10496
   D12        1.71420  -0.00009  -0.00080   0.00064  -0.00016   1.71405
   D13       -3.13796  -0.00016  -0.00121  -0.00150  -0.00271  -3.14067
   D14        2.25565  -0.00008   0.00009  -0.00036  -0.00028   2.25537
   D15        0.24668  -0.00003   0.00026   0.00014   0.00040   0.24708
   D16       -3.14400  -0.00002  -0.00159  -0.00248  -0.00407  -3.14807
   D17        3.15978   0.00018   0.00180   0.00282   0.00462   3.16440
   D18        3.11905  -0.00009  -0.00086  -0.00021  -0.00107   3.11798
   D19       -0.01227   0.00005  -0.00018   0.00075   0.00058  -0.01169
   D20        3.12785  -0.00004  -0.00079  -0.00054  -0.00133   3.12652
         Item               Value     Threshold  Converged?
 Maximum Force            0.000374     0.000450     YES
 RMS     Force            0.000103     0.000300     YES
 Maximum Displacement     0.004620     0.001800     NO 
 RMS     Displacement     0.001050     0.001200     YES
 Predicted change in Energy=-1.548240D-06
 GradGradGradGradGradGradGradGradGradGradGradGradGradGradGradGradGradGrad

 ---------------------------------------------------------------------------------------------------
                            Z-MATRIX (ANGSTROMS AND DEGREES)
   CD    Cent   Atom    N1       Length/X        N2       Alpha/Y        N3        Beta/Z          J
 ---------------------------------------------------------------------------------------------------
      1      1  C 
      2      2  C        1   1.546921(     1)
      3      3  C        1   1.544585(     2)      2   88.864(    20)
      4      4  H        1   1.089911(     3)      2  111.110(    21)      3 -112.760(    38)      0
      5      5  H        1   1.091658(     4)      2  117.990(    22)      3  120.646(    39)      0
      6      6  C        2   1.550737(     5)      1   89.443(    23)      3   19.082(    40)      0
      7      7  C        3   1.490865(     6)      1  121.848(    24)      2 -143.993(    41)      0
      8      8  H        2   1.091210(     7)      1  112.059(    25)      6 -112.577(    42)      0
      9      9  H        2   1.088069(     8)      1  117.392(    26)      6  121.128(    43)      0
     10     10  H        3   1.096218(     9)      1  109.294(    27)      7 -127.575(    44)      0
     11     11  C        7   1.327965(    10)      3  126.343(    28)      1   -6.014(    45)      0
     12     12  C        6   1.497911(    11)      2  117.490(    29)      1   98.208(    46)      0
     13     13  H        7   1.088190(    12)      3  115.232(    30)     11 -179.947(    47)      0
     14     14  H        6   1.093646(    13)      2  114.938(    31)     12  129.223(    48)      0
     15     15  C       12   1.326996(    14)      6  127.524(    32)      2   14.157(    49)      0
     16     16  H       11   1.082476(    15)      7  121.366(    33)      3 -180.371(    50)      0
     17     17  H       11   1.083547(    16)      7  121.983(    34)     16  181.307(    51)      0
     18     18  H       12   1.087019(    17)      6  114.429(    35)     15  178.647(    52)      0
     19     19  H       15   1.082905(    18)     12  122.764(    36)      6   -0.670(    53)      0
     20     20  H       15   1.082061(    19)     12  120.972(    37)     19  179.137(    54)      0
 ---------------------------------------------------------------------------------------------------
                         Z-Matrix orientation:                         
 ---------------------------------------------------------------------
 Center     Atomic      Atomic             Coordinates (Angstroms)
 Number     Number       Type             X           Y           Z
 ---------------------------------------------------------------------
      1          6           0        0.000000    0.000000    0.000000
      2          6           0        0.000000    0.000000    1.546921
      3          6           0        1.544281    0.000000    0.030633
      4          1           0       -0.393360    0.937595   -0.392541
      5          1           0       -0.491368   -0.829331   -0.512332
      6          6           0        1.465461    0.506932    1.531841
      7          6           0        2.351117    0.744517   -0.978025
      8          1           0       -0.061657   -1.009447    1.956745
      9          1           0       -0.742321    0.618265    2.047523
     10          1           0        1.905854   -1.034263    0.066110
     11          6           0        1.883880    1.376855   -2.048226
     12          6           0        1.690666    1.976471    1.714807
     13          1           0        3.424172    0.755165   -0.797474
     14          1           0        2.146142   -0.030401    2.198180
     15          6           0        0.819270    2.880405    2.144333
     16          1           0        2.545293    1.899383   -2.727382
     17          1           0        0.825157    1.414907   -2.275674
     18          1           0        2.698629    2.309372    1.480720
     19          1           0       -0.200537    2.631335    2.410116
     20          1           0        1.104478    3.917747    2.260236
 ---------------------------------------------------------------------
                    Distance matrix (angstroms):
                    1          2          3          4          5
     1  C    0.000000
     2  C    1.546921   0.000000
     3  C    1.544585   2.164240   0.000000
     4  H    1.089911   2.189824   2.193767   0.000000
     5  H    1.091658   2.273710   2.264171   1.773692   0.000000
     6  C    2.179700   1.550737   1.586449   2.709969   3.129445
     7  C    2.653034   3.529505   1.490865   2.812868   3.282315
     8  H    2.202643   1.091210   2.703318   3.069225   2.512655
     9  H    2.263988   1.088069   3.111053   2.485489   2.951503
    10  H    2.169412   2.625792   1.096218   3.063490   2.474523
    11  C    3.104829   4.286002   2.516487   2.849573   3.587204
    12  C    3.115341   2.606333   2.600829   3.140596   4.194514
    13  H    3.595997   4.217987   2.188612   3.843280   4.233603
    14  H    3.072270   2.242986   2.249760   3.754720   3.865440
    15  C    3.683218   3.053659   3.645559   3.417705   4.747397
    16  H    4.186261   5.325019   3.495186   3.874558   4.644743
    17  H    2.803843   4.158735   2.799670   2.293207   3.143123
    18  H    3.848159   3.552489   2.961160   3.866688   4.898959
    19  H    3.573906   2.776553   3.953512   3.280370   4.538887
    20  H    4.655887   4.132485   4.529161   4.261696   5.724387
                    6          7          8          9         10
     6  C    0.000000
     7  C    2.672126   0.000000
     8  H    2.193636   4.184584   0.000000
     9  H    2.269940   4.328884   1.766632   0.000000
    10  H    2.172004   2.110103   2.728776   3.697253   0.000000
    11  C    3.707926   1.327965   5.051667   4.924180   3.206928
    12  C    1.497911   3.034016   3.470572   2.806216   3.439336
    13  H    3.053502   1.088190   4.780228   5.047020   2.500624
    14  H    1.093646   3.275788   2.427179   2.964234   2.368798
    15  C    2.534972   4.081383   3.992764   2.750494   4.563365
    16  H    4.609331   2.105153   6.099059   5.937119   4.101068
    17  H    3.966305   2.112314   4.957550   4.667082   3.556724
    18  H    2.184515   2.935125   4.342849   3.875725   3.716115
    19  H    2.839015   4.642254   3.671529   2.116000   4.834032
    20  H    3.506355   4.702109   5.072398   3.787149   5.475290
                   11         12         13         14         15
    11  C    0.000000
    12  C    3.815402   0.000000
    13  H    2.079273   3.287581   0.000000
    14  H    4.481195   2.113916   3.350286   0.000000
    15  C    4.579477   1.326996   4.467257   3.199419   0.000000
    16  H    1.082476   4.524309   2.409607   5.305143   5.260719
    17  H    1.083547   4.121698   3.061897   4.883573   4.656627
    18  H    3.739901   1.087019   2.851690   2.508890   2.073270
    19  H    5.078911   2.118714   5.191066   3.554808   1.082905
    20  H    5.062257   2.099920   4.973177   4.083723   1.082061
                   16         17         18         19         20
    16  H    0.000000
    17  H    1.843264   0.000000
    18  H    4.230806   4.291906   0.000000
    19  H    5.871050   4.948573   3.061471   0.000000
    20  H    5.570105   5.188131   2.394960   1.838583   0.000000
 Symmetry turned off by external request.
 Stoichiometry    C8H12
 Framework group  C1[X(C8H12)]
 Deg. of freedom    54
 Full point group                 C1      NOp   1
 Rotational constants (GHZ):           2.7994495           1.6947916           1.3169495
 Standard basis: def2TZVP (5D, 7F)
 The following finite field(s) will be applied:
 An electric field of             -0.0013 -0.0042 -0.0023
   320 basis functions,   504 primitive gaussians,   360 cartesian basis functions
    30 alpha electrons       30 beta electrons
       nuclear repulsion energy       360.4302975714 Hartrees.
 NAtoms=   20 NActive=   20 NUniq=   20 SFac= 1.00D+00 NAtFMM=   60 NAOKFM=F Big=F
 Integral buffers will be    131072 words long.
 Raffenetti 2 integral format.
 Two-electron integral symmetry is turned off.
 One-electron integrals computed using PRISM.
   1 Symmetry operations used in ECPInt.
 ECPInt:  NShTT=    9316 NPrTT=   27240 LenC2=    9174 LenP2D=   21656.
 LDataN:  DoStor=T MaxTD1= 6 Len=  172
 NBasis=   320 RedAO= T EigKep=  3.47D-05  NBF=   320
 NBsUse=   320 1.00D-06 EigRej= -1.00D+00 NBFU=   320
 The nuclear repulsion energy is now       359.6726696104 hartrees.
 Initial guess from the checkpoint file:  "checkpoint.chk"
 B after Tr=     0.000159   -0.000877   -0.000532
         Rot=    1.000000   -0.000190    0.000125   -0.000218 Ang=  -0.04 deg.
 Requested convergence on RMS density matrix=1.00D-08 within 128 cycles.
 Requested convergence on MAX density matrix=1.00D-06.
 Requested convergence on             energy=1.00D-06.
 No special actions if energy rises.
 SCF Done:  E(RB3LYP) =  -312.117336705     A.U. after    7 cycles
            NFock=  7  Conv=0.38D-08     -V/T= 2.0056
   1 Symmetry operations used in ECPInt.
 ECPInt:  NShTT=    9316 NPrTT=   27240 LenC2=    9174 LenP2D=   21656.
 LDataN:  DoStor=T MaxTD1= 7 Len=  274
 Calling FoFJK, ICntrl=      2127 FMM=F ISym2X=0 I1Cent= 0 IOpClX= 0 NMat=1 NMatS=1 NMatT=0.
 -------------------------------------------------------------------
 Center     Atomic                   Forces (Hartrees/Bohr)
 Number     Number              X              Y              Z
 -------------------------------------------------------------------
      1        6          -0.000034935   -0.000412845    0.000023069
      2        6           0.000014771    0.000302568    0.000014950
      3        6           0.000012596    0.000011855   -0.000068042
      4        1          -0.000007260    0.000028995   -0.000002812
      5        1           0.000012932    0.000035692    0.000015425
      6        6          -0.000020146   -0.000044122   -0.000037811
      7        6          -0.000000368    0.000036174    0.000053809
      8        1          -0.000002422   -0.000023260    0.000000321
      9        1           0.000014461   -0.000039083   -0.000010535
     10        1          -0.000008693   -0.000018192    0.000013898
     11        6          -0.000005338   -0.000007653   -0.000020114
     12        6           0.000031619    0.000054239    0.000012310
     13        1          -0.000004216    0.000003620    0.000005716
     14        1          -0.000007100    0.000010998   -0.000013015
     15        6           0.000016104    0.000013384   -0.000011273
     16        1           0.000002333   -0.000007883   -0.000000883
     17        1           0.000001397    0.000003073    0.000006255
     18        1          -0.000010064    0.000026491    0.000008919
     19        1           0.000020370    0.000014288   -0.000002372
     20        1          -0.000026041    0.000011660    0.000012186
 -------------------------------------------------------------------
 Cartesian Forces:  Max     0.000412845 RMS     0.000069620
 -----------------------------------------------------------------------------------------------
                       Internal Coordinate Forces (Hartree/Bohr or radian)
  Cent   Atom   N1       Length/X         N2         Alpha/Y        N3         Beta/Z          J
 -----------------------------------------------------------------------------------------------
      1  C 
      2  C        1  -0.000026(     1)
      3  C        1  -0.000002(     2)      2  -0.000052(    20)
      4  H        1   0.000029(     3)      2  -0.000017(    21)      3   0.000009(    38)     0
      5  H        1  -0.000040(     4)      2   0.000008(    22)      3   0.000013(    39)     0
      6  C        2   0.000033(     5)      1  -0.000084(    23)      3   0.000255(    40)     0
      7  C        3  -0.000020(     6)      1   0.000026(    24)      2   0.000036(    41)     0
      8  H        2   0.000022(     7)      1  -0.000017(    25)      6  -0.000002(    42)     0
      9  H        2  -0.000037(     8)      1   0.000015(    26)      6   0.000038(    43)     0
     10  H        3   0.000015(     9)      1  -0.000029(    27)      7  -0.000027(    44)     0
     11  C        7   0.000007(    10)      3  -0.000002(    28)      1  -0.000036(    45)     0
     12  C        6   0.000125(    11)      2   0.000022(    29)      1   0.000010(    46)     0
     13  H        7  -0.000003(    12)      3  -0.000007(    30)     11  -0.000012(    47)     0
     14  H        6  -0.000018(    13)      2   0.000010(    31)     12   0.000002(    48)     0
     15  C       12   0.000019(    14)      6   0.000046(    32)      2  -0.000011(    49)     0
     16  H       11  -0.000002(    15)      7  -0.000007(    33)      3   0.000023(    50)     0
     17  H       11  -0.000003(    16)      7  -0.000007(    34)     16   0.000010(    51)     0
     18  H       12  -0.000003(    17)      6   0.000061(    35)     15  -0.000003(    52)     0
     19  H       15  -0.000023(    18)     12   0.000020(    36)      6  -0.000002(    53)     0
     20  H       15   0.000006(    19)     12   0.000062(    37)     19  -0.000004(    54)     0
 -----------------------------------------------------------------------------------------------
 Internal  Forces:  Max     0.000255021 RMS     0.000046689

 GradGradGradGradGradGradGradGradGradGradGradGradGradGradGradGradGradGrad
 Berny optimization.
 Search for a local minimum.
 Step number   3 out of a maximum of   64
 All quantities printed in internal units (Hartrees-Bohrs-Radians)
 Update second derivatives using D2CorN and points    1    2    3
 DE= -1.62D-06 DEPred=-1.55D-06 R= 1.05D+00
 TightC=F SS=  1.41D+00  RLast= 7.71D-03 DXNew= 1.6818D-01 2.3142D-02
 Trust test= 1.05D+00 RLast= 7.71D-03 DXMaxT set to 1.00D-01
 ITU=  1  1  0
     Eigenvalues ---    0.02863   0.03374   0.04040   0.05180   0.07410
     Eigenvalues ---    0.08890   0.10599   0.11656   0.12460   0.12997
     Eigenvalues ---    0.15972   0.16307   0.17205   0.17407   0.18468
     Eigenvalues ---    0.18557   0.19856   0.20481   0.20822   0.22532
     Eigenvalues ---    0.23098   0.25378   0.26441   0.27873   0.30181
     Eigenvalues ---    0.31266   0.32707   0.33344   0.34163   0.34378
     Eigenvalues ---    0.34713   0.34735   0.34819   0.35010   0.35023
     Eigenvalues ---    0.35132   0.35585   0.35658   0.35692   0.35726
     Eigenvalues ---    0.38068   0.41869   0.41987   0.43645   0.48332
     Eigenvalues ---    0.49951   0.51603   0.54198   0.59372   0.60011
     Eigenvalues ---    0.60147   0.86256   1.13683   4.94383
 RFO step:  Lambda=-4.74959637D-07 EMin= 2.86320286D-02
 Quartic linear search produced a step of -0.02340.
 Variable       Old X    -DE/DX   Delta X   Delta X   Delta X     New X
                                 (Linear)    (Quad)   (Total)
    R2        2.92326  -0.00003   0.00000  -0.00007  -0.00007   2.92319
    R3        2.91884  -0.00000   0.00000  -0.00003  -0.00003   2.91882
    R4        2.05963   0.00003   0.00000   0.00008   0.00008   2.05972
    R5        2.06293  -0.00004  -0.00001  -0.00010  -0.00011   2.06283
    R6        2.93047   0.00003  -0.00000   0.00009   0.00009   2.93055
    R7        2.81733  -0.00002   0.00000  -0.00007  -0.00007   2.81726
    R8        2.06209   0.00002   0.00000   0.00006   0.00006   2.06215
    R9        2.05615  -0.00004  -0.00000  -0.00011  -0.00011   2.05604
   R10        2.07155   0.00001  -0.00000   0.00005   0.00005   2.07160
   R11        2.50949   0.00001  -0.00000   0.00001   0.00001   2.50950
   R12        2.83064   0.00013   0.00000   0.00039   0.00039   2.83103
   R13        2.05638  -0.00000  -0.00000  -0.00001  -0.00001   2.05637
   R14        2.06669  -0.00002   0.00000  -0.00006  -0.00006   2.06664
   R15        2.50766   0.00002   0.00000   0.00003   0.00003   2.50769
   R16        2.04558  -0.00000   0.00000  -0.00001  -0.00001   2.04558
   R17        2.04761  -0.00000  -0.00000  -0.00001  -0.00001   2.04760
   R18        2.05417  -0.00000   0.00000  -0.00001  -0.00001   2.05416
   R19        2.04639  -0.00002  -0.00000  -0.00006  -0.00007   2.04633
   R20        2.04480   0.00001  -0.00000   0.00002   0.00002   2.04482
    A3        1.55096  -0.00005   0.00000  -0.00011  -0.00011   1.55085
    A4        1.93923  -0.00002   0.00002  -0.00012  -0.00010   1.93913
    A5        2.05931   0.00001  -0.00002   0.00012   0.00010   2.05941
    A6        1.56107  -0.00008  -0.00000  -0.00029  -0.00029   1.56078
    A7        2.12664   0.00003  -0.00000   0.00010   0.00010   2.12674
    A8        1.95581  -0.00002   0.00001  -0.00008  -0.00007   1.95574
    A9        2.04888   0.00001  -0.00001   0.00012   0.00012   2.04900
   A10        1.90754  -0.00003   0.00001   0.00004   0.00005   1.90758
   A11        2.20510  -0.00000   0.00000  -0.00001  -0.00001   2.20509
   A12        2.05059   0.00002   0.00003   0.00023   0.00026   2.05085
   A13        2.01119  -0.00001  -0.00000  -0.00001  -0.00001   2.01117
   A14        2.00604   0.00001  -0.00002  -0.00004  -0.00006   2.00599
   A15        2.22572   0.00005   0.00002   0.00011   0.00013   2.22584
   A16        2.11823  -0.00001  -0.00000  -0.00001  -0.00001   2.11822
   A17        2.12901  -0.00001   0.00000  -0.00003  -0.00003   2.12898
   A18        1.99715   0.00006  -0.00001   0.00010   0.00009   1.99725
   A19        2.14263   0.00002  -0.00000   0.00002   0.00002   2.14265
   A20        2.11136   0.00006  -0.00001   0.00017   0.00017   2.11153
    D4       -1.96803   0.00001  -0.00003   0.00015   0.00012  -1.96792
    D5        2.10567   0.00001  -0.00003   0.00013   0.00010   2.10577
    D6        0.33304   0.00026   0.00001   0.00129   0.00130   0.33433
    D7       -2.51314   0.00004  -0.00001  -0.00074  -0.00075  -2.51389
    D8       -1.96484  -0.00000  -0.00002   0.00013   0.00011  -1.96472
    D9        2.11409   0.00004  -0.00001   0.00007   0.00006   2.11415
   D10       -2.22660  -0.00003   0.00001  -0.00063  -0.00062  -2.22722
   D11       -0.10496  -0.00004  -0.00001  -0.00080  -0.00081  -0.10577
   D12        1.71405   0.00001   0.00000  -0.00111  -0.00111   1.71294
   D13       -3.14067  -0.00001   0.00006  -0.00018  -0.00012  -3.14079
   D14        2.25537   0.00000   0.00001   0.00007   0.00008   2.25545
   D15        0.24708  -0.00001  -0.00001   0.00011   0.00010   0.24718
   D16       -3.14807   0.00002   0.00010  -0.00046  -0.00036  -3.14843
   D17        3.16440   0.00001  -0.00011   0.00080   0.00070   3.16510
   D18        3.11798  -0.00000   0.00003  -0.00039  -0.00037   3.11761
   D19       -0.01169  -0.00000  -0.00001  -0.00014  -0.00016  -0.01185
   D20        3.12652  -0.00000   0.00003  -0.00042  -0.00039   3.12613
         Item               Value     Threshold  Converged?
 Maximum Force            0.000255     0.000450     YES
 RMS     Force            0.000047     0.000300     YES
 Maximum Displacement     0.001298     0.001800     YES
 RMS     Displacement     0.000333     0.001200     YES
 Predicted change in Energy=-2.429990D-07
 Optimization completed.
    -- Stationary point found.
                       ----------------------------
                       !   Optimized Parameters   !
                       ! (Angstroms and Degrees)  !
 ----------------------                            ----------------------
 !      Name          Value   Derivative information (Atomic Units)     !
 ------------------------------------------------------------------------
 !       R2          1.5469   -DE/DX =    0.0                           !
 !       R3          1.5446   -DE/DX =    0.0                           !
 !       R4          1.0899   -DE/DX =    0.0                           !
 !       R5          1.0917   -DE/DX =    0.0                           !
 !       R6          1.5507   -DE/DX =    0.0                           !
 !       R7          1.4909   -DE/DX =    0.0                           !
 !       R8          1.0912   -DE/DX =    0.0                           !
 !       R9          1.0881   -DE/DX =    0.0                           !
 !       R10         1.0962   -DE/DX =    0.0                           !
 !       R11         1.328    -DE/DX =    0.0                           !
 !       R12         1.4979   -DE/DX =    0.0001                        !
 !       R13         1.0882   -DE/DX =    0.0                           !
 !       R14         1.0936   -DE/DX =    0.0                           !
 !       R15         1.327    -DE/DX =    0.0                           !
 !       R16         1.0825   -DE/DX =    0.0                           !
 !       R17         1.0835   -DE/DX =    0.0                           !
 !       R18         1.087    -DE/DX =    0.0                           !
 !       R19         1.0829   -DE/DX =    0.0                           !
 !       R20         1.0821   -DE/DX =    0.0                           !
 !       A3         88.8636   -DE/DX =   -0.0001                        !
 !       A4        111.11     -DE/DX =    0.0                           !
 !       A5        117.9899   -DE/DX =    0.0                           !
 !       A6         89.4428   -DE/DX =   -0.0001                        !
 !       A7        121.8476   -DE/DX =    0.0                           !
 !       A8        112.0595   -DE/DX =    0.0                           !
 !       A9        117.3925   -DE/DX =    0.0                           !
 !       A10       109.2939   -DE/DX =    0.0                           !
 !       A11       126.3428   -DE/DX =    0.0                           !
 !       A12       117.4902   -DE/DX =    0.0                           !
 !       A13       115.2325   -DE/DX =    0.0                           !
 !       A14       114.9377   -DE/DX =    0.0                           !
 !       A15       127.5241   -DE/DX =    0.0                           !
 !       A16       121.3657   -DE/DX =    0.0                           !
 !       A17       121.9833   -DE/DX =    0.0                           !
 !       A18       114.4285   -DE/DX =    0.0001                        !
 !       A19       122.7636   -DE/DX =    0.0                           !
 !       A20       120.9723   -DE/DX =    0.0001                        !
 !       D4       -112.7601   -DE/DX =    0.0                           !
 !       D5        120.6462   -DE/DX =    0.0                           !
 !       D6         19.0815   -DE/DX =    0.0003                        !
 !       D7       -143.9926   -DE/DX =    0.0                           !
 !       D8       -112.5768   -DE/DX =    0.0                           !
 !       D9        121.1282   -DE/DX =    0.0                           !
 !       D10      -127.5747   -DE/DX =    0.0                           !
 !       D11        -6.0138   -DE/DX =    0.0                           !
 !       D12        98.2077   -DE/DX =    0.0                           !
 !       D13      -179.9471   -DE/DX =    0.0                           !
 !       D14       129.223    -DE/DX =    0.0                           !
 !       D15        14.1567   -DE/DX =    0.0                           !
 !       D16      -180.3712   -DE/DX =    0.0                           !
 !       D17       181.3068   -DE/DX =    0.0                           !
 !       D18       178.6473   -DE/DX =    0.0                           !
 !       D19        -0.6698   -DE/DX =    0.0                           !
 !       D20       179.1366   -DE/DX =    0.0                           !
 ------------------------------------------------------------------------
 GradGradGradGradGradGradGradGradGradGradGradGradGradGradGradGradGradGrad

 ---------------------------------------------------------------------------------------------------
                            Z-MATRIX (ANGSTROMS AND DEGREES)
   CD    Cent   Atom    N1       Length/X        N2       Alpha/Y        N3        Beta/Z          J
 ---------------------------------------------------------------------------------------------------
      1      1  C 
      2      2  C        1   1.546921(     1)
      3      3  C        1   1.544585(     2)      2   88.864(    20)
      4      4  H        1   1.089911(     3)      2  111.110(    21)      3 -112.760(    38)      0
      5      5  H        1   1.091658(     4)      2  117.990(    22)      3  120.646(    39)      0
      6      6  C        2   1.550737(     5)      1   89.443(    23)      3   19.082(    40)      0
      7      7  C        3   1.490865(     6)      1  121.848(    24)      2 -143.993(    41)      0
      8      8  H        2   1.091210(     7)      1  112.059(    25)      6 -112.577(    42)      0
      9      9  H        2   1.088069(     8)      1  117.392(    26)      6  121.128(    43)      0
     10     10  H        3   1.096218(     9)      1  109.294(    27)      7 -127.575(    44)      0
     11     11  C        7   1.327965(    10)      3  126.343(    28)      1   -6.014(    45)      0
     12     12  C        6   1.497911(    11)      2  117.490(    29)      1   98.208(    46)      0
     13     13  H        7   1.088190(    12)      3  115.232(    30)     11 -179.947(    47)      0
     14     14  H        6   1.093646(    13)      2  114.938(    31)     12  129.223(    48)      0
     15     15  C       12   1.326996(    14)      6  127.524(    32)      2   14.157(    49)      0
     16     16  H       11   1.082476(    15)      7  121.366(    33)      3 -180.371(    50)      0
     17     17  H       11   1.083547(    16)      7  121.983(    34)     16  181.307(    51)      0
     18     18  H       12   1.087019(    17)      6  114.429(    35)     15  178.647(    52)      0
     19     19  H       15   1.082905(    18)     12  122.764(    36)      6   -0.670(    53)      0
     20     20  H       15   1.082061(    19)     12  120.972(    37)     19  179.137(    54)      0
 ---------------------------------------------------------------------------------------------------
                         Z-Matrix orientation:                         
 ---------------------------------------------------------------------
 Center     Atomic      Atomic             Coordinates (Angstroms)
 Number     Number       Type             X           Y           Z
 ---------------------------------------------------------------------
      1          6           0        0.000000    0.000000    0.000000
      2          6           0        0.000000    0.000000    1.546921
      3          6           0        1.544281    0.000000    0.030633
      4          1           0       -0.393360    0.937595   -0.392541
      5          1           0       -0.491368   -0.829331   -0.512332
      6          6           0        1.465461    0.506932    1.531841
      7          6           0        2.351117    0.744517   -0.978025
      8          1           0       -0.061657   -1.009447    1.956745
      9          1           0       -0.742321    0.618265    2.047523
     10          1           0        1.905854   -1.034263    0.066110
     11          6           0        1.883880    1.376855   -2.048226
     12          6           0        1.690666    1.976471    1.714807
     13          1           0        3.424172    0.755165   -0.797474
     14          1           0        2.146142   -0.030401    2.198180
     15          6           0        0.819270    2.880405    2.144333
     16          1           0        2.545293    1.899383   -2.727382
     17          1           0        0.825157    1.414907   -2.275674
     18          1           0        2.698629    2.309372    1.480720
     19          1           0       -0.200537    2.631335    2.410116
     20          1           0        1.104478    3.917747    2.260236
 ---------------------------------------------------------------------
                    Distance matrix (angstroms):
                    1          2          3          4          5
     1  C    0.000000
     2  C    1.546921   0.000000
     3  C    1.544585   2.164240   0.000000
     4  H    1.089911   2.189824   2.193767   0.000000
     5  H    1.091658   2.273710   2.264171   1.773692   0.000000
     6  C    2.179700   1.550737   1.586449   2.709969   3.129445
     7  C    2.653034   3.529505   1.490865   2.812868   3.282315
     8  H    2.202643   1.091210   2.703318   3.069225   2.512655
     9  H    2.263988   1.088069   3.111053   2.485489   2.951503
    10  H    2.169412   2.625792   1.096218   3.063490   2.474523
    11  C    3.104829   4.286002   2.516487   2.849573   3.587204
    12  C    3.115341   2.606333   2.600829   3.140596   4.194514
    13  H    3.595997   4.217987   2.188612   3.843280   4.233603
    14  H    3.072270   2.242986   2.249760   3.754720   3.865440
    15  C    3.683218   3.053659   3.645559   3.417705   4.747397
    16  H    4.186261   5.325019   3.495186   3.874558   4.644743
    17  H    2.803843   4.158735   2.799670   2.293207   3.143123
    18  H    3.848159   3.552489   2.961160   3.866688   4.898959
    19  H    3.573906   2.776553   3.953512   3.280370   4.538887
    20  H    4.655887   4.132485   4.529161   4.261696   5.724387
                    6          7          8          9         10
     6  C    0.000000
     7  C    2.672126   0.000000
     8  H    2.193636   4.184584   0.000000
     9  H    2.269940   4.328884   1.766632   0.000000
    10  H    2.172004   2.110103   2.728776   3.697253   0.000000
    11  C    3.707926   1.327965   5.051667   4.924180   3.206928
    12  C    1.497911   3.034016   3.470572   2.806216   3.439336
    13  H    3.053502   1.088190   4.780228   5.047020   2.500624
    14  H    1.093646   3.275788   2.427179   2.964234   2.368798
    15  C    2.534972   4.081383   3.992764   2.750494   4.563365
    16  H    4.609331   2.105153   6.099059   5.937119   4.101068
    17  H    3.966305   2.112314   4.957550   4.667082   3.556724
    18  H    2.184515   2.935125   4.342849   3.875725   3.716115
    19  H    2.839015   4.642254   3.671529   2.116000   4.834032
    20  H    3.506355   4.702109   5.072398   3.787149   5.475290
                   11         12         13         14         15
    11  C    0.000000
    12  C    3.815402   0.000000
    13  H    2.079273   3.287581   0.000000
    14  H    4.481195   2.113916   3.350286   0.000000
    15  C    4.579477   1.326996   4.467257   3.199419   0.000000
    16  H    1.082476   4.524309   2.409607   5.305143   5.260719
    17  H    1.083547   4.121698   3.061897   4.883573   4.656627
    18  H    3.739901   1.087019   2.851690   2.508890   2.073270
    19  H    5.078911   2.118714   5.191066   3.554808   1.082905
    20  H    5.062257   2.099920   4.973177   4.083723   1.082061
                   16         17         18         19         20
    16  H    0.000000
    17  H    1.843264   0.000000
    18  H    4.230806   4.291906   0.000000
    19  H    5.871050   4.948573   3.061471   0.000000
    20  H    5.570105   5.188131   2.394960   1.838583   0.000000
[...]
 0902670,0.00794534,-0.00054817,0.00012929,-0.00039416,0.00014754,-0.00
 003728,-0.00172580,0.00062226,-0.00008408,0.00061977,-0.00204350,-0.02
 966742,0.01000052,-0.00004747,0.00040307,0.00006438,0.05013730,0.00097
 684,0.00268301,-0.00103415,-0.01016675,-0.27287344,0.08894112,-0.00000
 637,-0.00024673,-0.00037495,-0.00018466,0.00122552,-0.00056075,-0.0000
 2467,0.00123883,0.00063120,0.00051629,-0.00985835,0.00255659,-0.000165
 99,0.00017352,0.00021379,0.01261440,0.29325999,0.00001770,0.03080329,-
 0.01257004,0.00784294,0.08867617,-0.08091786,-0.00108043,-0.00021233,-
 0.00013479,0.00188995,-0.00029526,-0.00576701,-0.00097375,-0.00045421,
 0.00255281,-0.00022116,-0.00604472,0.00146948,0.00037006,-0.00026239,-
 0.00009834,-0.00616331,-0.09727511,0.08819561,0.00339841,-0.00556591,-
 0.00071390,-0.17205892,0.10538965,0.07937387,-0.00306916,-0.00187498,0
 .00207783,0.00075699,-0.00010014,0.00094951,-0.00011332,-0.00028042,-0
 .00080930,-0.01343696,0.01718798,0.01010387,0.00073360,0.00129211,0.00
 048009,0.00203399,-0.00093026,-0.00142254,0.18086659,-0.00229558,-0.00
 004123,0.00234429,0.10634981,-0.13890589,-0.07149101,-0.00146450,-0.00
 014343,0.00148305,-0.00005839,0.00103646,0.00014246,0.00017324,0.00009
 507,-0.00039495,-0.00566506,0.00880762,0.00567606,-0.00032237,0.000518
 48,0.00050477,0.02029550,-0.01718001,-0.01353723,-0.11535454,0.1493395
 7,0.01858408,-0.01712201,-0.00847814,0.07917379,-0.07060203,-0.1016733
 3,0.00176300,0.00135926,-0.00445229,-0.00070384,0.00005961,0.00260487,
 0.00087309,-0.00022305,-0.00237089,-0.00108938,0.00606984,-0.00025765,
 0.00136476,-0.00067783,0.00060931,-0.00883749,0.00688630,0.00634622,-0
 .09054919,0.07596817,0.10702038,-0.01382507,0.03054854,-0.00261326,0.0
 0064644,-0.00032301,-0.00117357,-0.07416952,0.07487453,0.00146862,-0.0
 0603190,0.00002308,0.00162110,0.00201621,-0.00039598,-0.00083578,0.001
 67413,-0.00441473,-0.00171443,0.00716434,-0.01736534,0.00123028,-0.000
 12009,-0.00016583,0.00064399,0.00003225,-0.00028648,0.00004359,0.08190
 492,-0.00076230,0.00147750,0.00043901,-0.00057095,0.00005759,0.0000622
 4,0.07755206,-0.26601408,0.00971333,-0.00062015,0.00114733,-0.00008171
 ,0.00053118,0.00117437,0.00011587,0.00354164,-0.01267038,-0.00197946,0
 .00566729,-0.01740311,0.00444516,0.00021986,0.00024991,-0.00022132,0.0
 0012879,0.00004954,-0.00025024,-0.08240172,0.28966450,-0.00356122,0.00
 625927,-0.00043369,-0.00070350,0.00010101,-0.00024523,-0.00058427,0.01
 123299,-0.03777305,-0.00152439,0.00015440,-0.00025601,0.00063977,0.000
 00616,0.00049597,0.00807716,-0.02991749,-0.00577976,-0.00655929,0.0259
 2531,-0.00498424,0.00054240,0.00015248,-0.00004272,-0.00025121,0.00017
 875,-0.00000532,-0.00046665,-0.01151038,0.05243715,0.00156989,-0.00018
 891,0.00012551,-0.00010320,0.00019429,0.00045142,0.01347787,-0.0064070
 6,0.01273672,-0.00023927,0.00015693,0.00058649,0.00013322,-0.00039701,
 -0.00006957,-0.00102524,-0.00188298,0.00274268,-0.16972473,0.06694377,
 -0.12591896,-0.00002743,0.00005512,-0.00008980,-0.00018002,0.00003700,
 -0.00003853,-0.00111861,-0.00282952,0.00264972,0.65467304,0.00091781,-
 0.00007634,-0.00001654,0.00016131,0.00006918,0.00032916,0.00222980,-0.
 00446485,0.02312300,-0.00027708,0.00000439,-0.00030404,-0.00018858,0.0
 0026399,-0.00015219,-0.00002340,-0.00271788,-0.00350720,0.07191894,-0.
 16490397,0.19373445,-0.00000645,0.00008393,0.00006984,-0.00034442,-0.0
 0011280,0.00000327,-0.00075404,-0.00042324,0.00024633,0.00790778,0.313
 88835,-0.00095048,-0.00131122,0.00004837,-0.00041981,0.00026990,-0.000
 23636,-0.00407487,0.01691414,-0.02192509,0.00036930,0.00049826,-0.0001
 0780,0.00034256,0.00004881,0.00016791,0.00006320,0.00144614,0.00220904
 ,-0.13186431,0.19150861,-0.37524495,-0.00005336,-0.00003748,-0.0001558
 2,0.00035575,0.00004104,0.00007249,0.00162669,0.00039636,-0.00066475,0
 .08180540,-0.32039720,0.61569474,-0.00152221,-0.00089205,0.00029977,-0
 .00278347,-0.03331001,-0.00307836,-0.00082046,0.01060864,0.00155141,-0
 .00008651,-0.00008841,-0.00053807,0.00010420,0.00036093,-0.00044546,-0
 .09447603,-0.02343482,-0.00017386,0.00214297,0.00040703,-0.00019322,-0
 .00525812,-0.00225620,-0.00133052,0.00217861,0.00110963,0.00089503,0.0
 0005980,0.00094615,0.00285811,-0.00048064,-0.00028319,0.00023981,0.692
 89353,0.00085800,0.00057500,-0.00000037,-0.00994427,-0.00776089,0.0014
 8746,0.00008201,-0.01344185,-0.01514431,0.00020169,-0.00030767,0.00038
 547,0.00087998,0.00012566,0.00052234,-0.02079546,-0.19820702,-0.005508
 37,0.00108578,0.00070710,0.00031329,0.00074846,0.00043295,-0.00101001,
 0.00221731,-0.00060690,-0.00085175,-0.00044187,0.00086993,0.00039087,-
 0.00051441,-0.00049522,0.00090434,-0.10470803,0.63888044,-0.00001277,-
 0.00003085,-0.00105187,-0.00040085,0.00748362,-0.00035972,-0.00170646,
 -0.03066515,-0.00239859,-0.00017902,-0.00022106,0.00023169,-0.00018989
 ,0.00016196,0.00016506,0.00025089,-0.01285902,-0.07497925,0.00008413,-
 0.00106786,0.00107574,0.00225649,0.00047541,0.00005109,-0.00020994,-0.
 00061085,0.00056347,-0.00096271,-0.00282211,-0.00498945,-0.00001095,-0
 .00054790,-0.00012129,-0.17885773,0.12151673,0.22979207,0.00178012,-0.
 00218668,0.00140627,-0.00045270,0.00029787,0.00022236,-0.01613316,0.00
 030020,-0.00381201,0.00028143,0.00010258,-0.00024072,-0.00058272,-0.00
 002815,0.00021519,0.00001932,-0.00000296,0.00023135,-0.31248598,-0.003
 30195,-0.04409173,0.00005880,-0.00001670,0.00008221,-0.00005275,-0.000
 02908,0.00030493,0.00051524,-0.00067327,0.00015277,-0.01050810,-0.0008
 4956,-0.00169220,-0.00042990,-0.00047183,0.00010400,0.33505653,0.00049
 849,-0.00028070,0.00269257,-0.00078577,0.00023477,0.00035552,-0.016375
 91,0.00201348,-0.00319597,-0.00008697,0.00012972,0.00000510,-0.0000068
 0,-0.00012964,-0.00014074,-0.00045612,0.00034477,0.00080025,-0.0065892
 7,-0.04616393,0.00604450,-0.00002799,-0.00004148,0.00005147,0.00002684
 ,-0.00003544,0.00034353,0.00075057,0.00065880,-0.00086851,0.01632057,0
 .00508332,0.00533090,0.00021048,0.00004509,0.00009836,0.00537740,0.036
 33388,0.00075543,0.00323171,-0.00155897,0.00018352,-0.00001980,0.00031
 872,0.02221410,0.00042639,0.00582229,-0.00025247,-0.00015443,0.0001418
 3,0.00079114,0.00004152,-0.00030266,-0.00089622,-0.00074756,0.00053978
 ,-0.03993032,0.00653648,-0.05849286,-0.00005536,-0.00001935,-0.0000259
 6,-0.00010962,-0.00005537,-0.00024431,-0.00058469,0.00021492,0.0005734
 5,-0.02919634,0.00233793,-0.00206184,-0.00009619,-0.00002228,-0.000135
 38,0.04835204,-0.01456052,0.05766830,-0.00204434,-0.00242223,-0.001073
 84,-0.01395739,0.01417622,-0.01488404,0.00263286,-0.00421488,0.0040257
 8,0.00012221,0.00015320,-0.00002963,-0.00010617,0.00010970,-0.00127569
 ,-0.14669697,0.07617633,-0.09336591,0.00044824,0.00041064,0.00039280,0
 .00200327,0.00018663,0.00068854,-0.00254785,-0.00074480,-0.00099881,0.
 00100098,-0.00084129,-0.00083642,-0.00017058,-0.00013481,0.00007979,0.
 00379805,0.00045590,0.00314736,-0.00002996,0.00007431,-0.00004230,0.15
 407841,-0.00173994,-0.00031561,-0.00184730,-0.00689641,0.00375912,-0.0
 0616982,-0.00546612,0.00302938,-0.00687753,-0.00026613,0.00002658,-0.0
 0034748,-0.00052421,-0.00017034,-0.00059379,0.07983928,-0.10839295,0.0
 8221322,-0.00047322,-0.00016145,-0.00009645,0.00011295,0.00128982,0.00
 009894,-0.00063669,-0.00015892,-0.00032835,-0.00001086,0.00139777,-0.0
 0028241,0.00008256,0.00016306,-0.00013493,0.02290548,-0.02301140,0.017
 88319,0.00006699,-0.00002861,0.00008003,-0.08324444,0.12444846,-0.0009
 3551,-0.00260264,-0.00253792,0.00292129,-0.00490820,0.00294200,-0.0152
 8168,0.01311072,-0.01694259,0.00002436,0.00017198,0.00012972,-0.001303
 48,0.00001790,-0.00016864,-0.09309158,0.08045142,-0.13714092,-0.002002
 30,-0.00181602,-0.00139989,-0.00092360,-0.00058060,0.00081876,0.001124
 97,-0.00004710,-0.00007175,0.00070217,0.00058115,0.00228375,0.00063894
 ,0.00056666,-0.00049492,0.00289620,-0.00362011,0.00455649,0.00039691,0
 .00009266,-0.00019527,0.10494682,-0.08181800,0.14851872,0.00020429,0.0
 0038769,-0.00074423,0.00081177,0.00101898,0.00036111,0.00016490,-0.003
 34557,-0.00273220,0.00023103,-0.00034927,0.00019093,0.00021464,-0.0001
 5249,0.00016111,0.00951744,0.00371543,0.00042130,-0.00071165,-0.000122
 30,-0.00011187,-0.00010870,-0.00009765,-0.00009423,-0.00020361,-0.0011
 9941,-0.00002221,0.00003267,-0.00032347,-0.00042886,0.00020981,-0.0000
 4308,-0.00003229,-0.30132737,0.18749938,0.11047772,0.00025248,-0.00008
 803,-0.00001984,0.00109324,-0.00306871,-0.00000849,0.68373269,0.000496
 70,-0.00028598,0.00001488,0.00144460,0.00047308,0.00006329,0.00041617,
 -0.00236595,0.00300062,-0.00036756,0.00002505,-0.00035167,-0.00031699,
 0.00012138,-0.00016532,0.02042376,-0.02716618,-0.01307264,-0.00073459,
 -0.00041328,0.00095260,0.00030987,0.00001364,-0.00019361,-0.00010820,-
 0.00084762,-0.00028839,-0.00016862,-0.00035530,-0.00143134,0.00019882,
 0.00076960,-0.00045765,0.19494561,-0.30895224,-0.10773314,0.00026147,-
 0.00005032,-0.00013376,-0.00079532,-0.00268691,-0.00029029,-0.06588802
 ,0.72097282,-0.00017919,0.00035973,-0.00008976,0.00015250,-0.00042549,
 -0.00003162,0.00002801,0.00028837,-0.00070493,-0.00002770,-0.00018219,
 0.00005218,0.00010017,-0.00006500,0.00001249,0.00243667,-0.00505408,0.
 00593563,0.00002186,-0.00013966,-0.00022837,0.00025381,-0.00001345,-0.
 00002651,-0.00000209,0.00020393,-0.00027045,0.00006879,0.00002847,0.00
 014598,-0.00001011,-0.00017769,0.00010987,0.11170392,-0.10648480,-0.10
 388981,-0.00002110,-0.00000973,-0.00000306,-0.00048345,0.00025541,-0.0
 0023123,-0.18576792,0.13648866,0.19126173,0.00002923,0.00030929,0.0002
 1050,0.00014086,-0.00030858,-0.00008360,-0.00087066,-0.00032664,-0.002
 35054,0.00040285,-0.00031150,-0.00012727,0.00006561,0.00001801,-0.0000
 0393,0.00015133,0.00030248,-0.00008909,0.01000819,0.00734639,-0.010270
 82,0.00004508,0.00000997,0.00013507,0.00005095,0.00002700,-0.00001365,
 0.00009255,0.00008360,0.00010230,-0.16626556,-0.08697433,0.10977533,0.
 00002732,0.00008478,0.00003252,0.00133020,0.00075173,0.00068531,0.0000
 3848,-0.00000600,-0.00006050,-0.00000008,-0.00003724,0.00001722,0.1677
 8395,0.00000810,0.00030529,-0.00041089,-0.00002896,0.00044516,0.000407
 60,0.00123776,0.00929477,0.00674116,-0.00011800,0.00002972,0.00002215,
 -0.00004634,-0.00005022,-0.00006480,-0.00073607,-0.00182429,0.00087724
 ,-0.01034034,-0.00432098,0.01018224,-0.00000372,-0.00006356,-0.0000455
 8,-0.00019110,-0.00009241,-0.00000242,0.00080826,0.00068329,-0.0012701
 8,-0.08511720,-0.10489830,0.09373958,-0.00006174,-0.00037446,-0.000170
 35,0.00086645,-0.00517510,-0.00410337,-0.00014071,0.00004867,0.0004022
 9,0.00002865,0.00008252,-0.00001958,0.09221482,0.10309519,-0.00045137,
 0.00019129,0.00013779,0.00008688,-0.00003336,0.00015032,-0.00362513,0.
 00656856,0.00254454,0.00010205,-0.00022936,0.00007963,0.00008061,0.000
 04105,-0.00004680,-0.00035589,-0.00030796,0.00045740,0.01785961,0.0133
 4707,-0.01393097,-0.00003773,-0.00003135,0.00002999,-0.00000417,-0.000
 04471,-0.00003736,0.00088142,0.00106948,-0.00157013,0.10513890,0.09240
 609,-0.15597568,0.00005156,-0.00002920,-0.00006505,0.00042518,-0.00420
 170,-0.00154975,-0.00001960,-0.00003667,0.00003287,0.00000615,-0.00009
 935,-0.00000760,-0.11522364,-0.10547239,0.16398096,0.00010474,0.000034
 90,0.00048332,0.00041609,-0.00019222,0.00009920,-0.00051690,-0.0003206
 7,0.00202107,-0.00007574,-0.00061455,0.00075085,0.00005972,0.00014751,
 -0.00006865,-0.00008610,-0.00004686,0.00007197,-0.00963772,0.00062385,
 -0.00340962,0.00003492,0.00001684,0.00008035,-0.00000168,0.00000391,-0
 .00008613,0.00003041,0.00016110,-0.00025113,-0.32027933,0.00621784,-0.
 05550739,-0.00007119,0.00003619,0.00002639,0.00093789,0.00035317,-0.00
 192234,-0.00000177,-0.00003735,0.00001599,0.00007883,-0.00005125,0.000
 02018,-0.01304799,0.00157778,-0.00490971,0.34203069,-0.00032075,-0.000
 55788,0.00001729,0.00003315,-0.00024642,-0.00018176,0.00126454,-0.0048
 9048,-0.00427078,-0.00017005,0.00025530,0.00019652,-0.00027056,-0.0001
 4897,0.00015111,0.00032107,0.00098487,-0.00062983,0.01540265,0.0050276
 9,0.00404267,-0.00004124,0.00001590,-0.00003208,0.00008004,0.00005421,
 -0.00008558,-0.00028934,-0.00049096,0.00081898,0.00518922,-0.04246214,
 0.01142171,0.00007924,0.00022297,0.00020757,-0.00005655,0.00707308,0.0
 0734365,0.00005199,-0.00005407,-0.00019454,0.00001507,-0.00013670,0.00
 005595,-0.01318277,0.00278081,-0.00310406,-0.00794791,0.03263157,0.000
 14227,0.00063679,-0.00001526,-0.00011794,-0.00057241,-0.00018854,-0.00
 026913,-0.00423881,-0.00146011,0.00110573,-0.00002960,-0.00086350,0.00
 003180,-0.00018836,0.00010256,0.00005295,0.00059899,-0.00030246,-0.027
 33035,0.00123851,-0.00051808,0.00003845,-0.00000930,0.00021547,0.00006
 640,0.00006477,0.00001981,-0.00003335,-0.00048059,0.00065989,-0.051586
 82,0.01199871,-0.06119553,-0.00003407,0.00011426,0.00017877,-0.0020959
 5,0.00739020,-0.00018524,0.00008968,-0.00001952,-0.00004066,0.00008268
 ,-0.00007517,0.00005526,0.01726026,-0.00074600,0.00586239,0.06260582,-
 0.01572724,0.05769516,0.00011469,0.00013271,0.00013006,0.00148976,-0.0
 0050432,0.00082276,0.00023936,-0.00014860,0.00033296,-0.00002710,-0.00
 000662,0.00002526,0.00000518,-0.00001338,-0.00002769,-0.00301102,-0.00
 120070,0.00084019,-0.00032826,-0.00013667,0.00027162,-0.00036222,-0.00
 011131,-0.00019091,0.00015171,0.00019996,0.00001285,0.00004042,-0.0000
 1720,-0.00015748,0.00005695,0.00049279,-0.00007901,-0.28340754,-0.0755
 2438,0.05647069,0.00036238,0.00004384,0.00019007,0.00040975,-0.0009175
 2,0.00000858,-0.01990835,-0.00730865,0.00645058,-0.00000180,0.00005769
 ,0.00000039,0.00001524,-0.00012287,-0.00002728,0.30366273,0.00008631,0
 .00019472,0.00033265,0.00201494,-0.00521595,0.00008077,-0.00005941,0.0
 0118798,0.00017711,-0.00000250,0.00001121,-0.00014540,0.00008282,0.000
 01431,-0.00019590,-0.03042036,-0.00939937,0.00515055,-0.00025945,-0.00
 012318,-0.00022231,-0.00152549,-0.00064995,-0.00034690,0.00007075,0.00
 026589,0.00015918,0.00007756,-0.00000895,0.00007389,0.00025336,0.00023
 442,-0.00016719,-0.07999745,-0.08126971,0.01629608,0.00039011,-0.00001
 546,-0.00039305,0.00076276,0.00095267,0.00050504,0.02324259,0.00851544
 ,-0.00653863,-0.00000440,0.00004637,-0.00000776,0.00004613,-0.00008071
 ,0.00004936,0.08221008,0.08638040,0.00023313,0.00024271,0.00031445,-0.
 00039717,-0.00145343,0.00118711,0.00008779,0.00116399,0.00098835,-0.00
 000905,-0.00007865,-0.00002789,0.00002771,-0.00001034,0.00012770,-0.00
 305561,-0.00176721,0.00221965,-0.00002100,-0.00035062,-0.00010698,-0.0
 0050203,-0.00018487,-0.00005927,0.00002795,-0.00004488,0.00010522,0.00
 008424,0.00010836,0.00003826,0.00004521,0.00018813,-0.00008066,0.05604
 689,0.01522629,-0.05419564,0.00010843,-0.00019865,-0.00032560,0.000090
 97,-0.00047576,0.00025802,0.01216024,0.00230274,0.00334408,0.00001075,
 -0.00005664,-0.00007310,0.00000824,0.00000701,0.00003267,-0.06655451,-
 0.01299324,0.04325691,0.00010437,-0.00006902,0.00014615,0.00015431,-0.
 00064187,-0.00036957,-0.00010546,-0.00029427,-0.00009294,-0.00002789,0
 .00008664,0.00004871,0.00002700,-0.00003006,-0.00003099,-0.00072719,-0
 .00192968,-0.00245551,0.00002371,-0.00000168,0.00013706,0.00038183,-0.
 00010682,-0.00006339,0.00082732,-0.00082759,-0.00042835,-0.00000346,0.
 00001145,-0.00006746,0.00000842,0.00010383,-0.00001476,-0.01823175,-0.
 00564062,0.00630966,0.00010264,-0.00001992,-0.00007138,-0.00008513,0.0
 0045798,0.00012004,-0.29787197,-0.06277969,0.06816413,0.00000799,-0.00
 000291,-0.00001157,0.00001450,-0.00002522,0.00001222,-0.00014230,0.002
 45630,0.00406601,0.31988342,-0.00007039,0.00016293,0.00002631,0.000410
 23,-0.00133074,-0.00058783,-0.00007731,0.00034668,0.00011377,0.0000115
 7,0.00002375,0.00001207,-0.00003662,0.00002190,0.00013208,0.00036896,0
 .00057608,0.00143993,0.00009386,0.00012091,-0.00010496,-0.00005761,0.0
 0030426,0.00023962,-0.00100776,-0.00216241,-0.00045570,-0.00000959,0.0
 0005824,0.00008911,-0.00002599,-0.00009745,0.00005488,0.02045664,0.010
 36562,-0.00543222,-0.00007664,0.00000356,0.00001367,-0.00011728,-0.000
 08991,-0.00005650,-0.06613898,-0.07335848,0.01305483,0.00000046,-0.000
 02412,-0.00000596,-0.00000304,0.00003639,-0.00000169,0.00229907,-0.001
 89721,-0.00318654,0.06922759,0.06963347,0.00010474,-0.00013543,-0.0000
 9080,0.00040726,0.00002975,-0.00059860,0.00013290,-0.00102748,0.000161
 11,-0.00008440,-0.00002445,-0.00027392,-0.00004312,0.00009221,-0.00002
 022,-0.00229136,0.00161877,-0.00645038,0.00008669,-0.00009994,0.000279
 70,-0.00014298,0.00017829,0.00007139,-0.00029790,-0.00030195,0.0005831
 3,-0.00009661,-0.00015398,-0.00032081,-0.00005834,0.00013385,0.0000209
 7,0.01102141,0.00301411,0.00329263,-0.00001164,-0.00004067,-0.00001943
 ,-0.00027408,0.00115572,0.00026091,0.06817477,0.01206615,-0.05493891,-
 0.00001806,0.00001482,0.00001554,-0.00001656,-0.00002233,-0.00004321,0
 .00388831,-0.00330925,0.00997391,-0.07759262,-0.01213245,0.04484212,-0
 .00002181,-0.00011541,0.00009271,-0.00057551,-0.00030268,0.00021834,-0
 .00014981,0.00118099,-0.00019863,0.00001516,0.00001397,0.00006606,0.00
 005855,-0.00002936,-0.00004506,-0.00139644,0.00056557,0.00449961,0.000
 13770,0.00011193,-0.00018010,0.00024976,-0.00014287,-0.00012076,0.0006
 3386,0.00005174,-0.00024754,0.00005827,0.00019675,0.00036964,-0.000006
 49,-0.00007115,0.00003064,0.00769072,0.02389139,0.00337049,-0.00002177
 ,0.00002938,0.00000546,0.00001465,-0.00017764,-0.00018913,-0.07641207,
 -0.07994087,-0.00292628,0.00001147,-0.00001240,0.00000607,-0.00000461,
 -0.00000972,0.00000665,0.00064043,0.00057533,-0.00245818,-0.00434036,-
 0.02524719,-0.00288840,0.07341829,0.00010921,0.00000320,0.00003296,0.0
 0035981,0.00040829,0.00003313,0.00018851,-0.00103807,0.00010872,-0.000
 02955,0.00000973,-0.00000711,-0.00002525,-0.00001625,-0.00002552,0.001
 48719,0.00119664,-0.00298341,-0.00009808,-0.00009684,0.00016040,-0.000
 03243,-0.00005778,-0.00000860,0.00000095,0.00012021,0.00003816,-0.0000
 5514,-0.00012273,-0.00034923,0.00002366,0.00009195,-0.00006900,-0.0069
 9794,-0.01779741,-0.00196241,0.00003029,0.00000021,-0.00001680,0.00009
 807,-0.00004538,0.00003418,-0.07509078,-0.31435457,-0.03162505,0.00000
 296,0.00001165,-0.00001971,-0.00000538,-0.00001446,-0.00000291,0.00057
 607,0.00085709,0.00156162,0.00002555,-0.00269348,-0.00105573,0.0794322
 5,0.33353800,-0.00012901,-0.00002277,0.00010817,0.00004493,0.00006428,
 0.00022857,-0.00006526,0.00196243,-0.00000782,0.00005403,0.00000941,0.
 00000739,-0.00000471,-0.00002229,-0.00002184,0.00499371,-0.00239388,0.
 01119692,-0.00006586,0.00015301,-0.00031411,-0.00007679,0.00008617,0.0
 0004750,-0.00019038,-0.00007924,-0.00006342,0.00011017,0.00032545,0.00
 043071,0.00005842,-0.00003467,-0.00005871,-0.00281663,-0.01120396,0.00
 227905,-0.00003629,0.00001144,0.00003597,-0.00017798,-0.00265851,-0.00
 057744,-0.00207387,-0.03059662,-0.04049496,0.00001187,-0.00002489,-0.0
 0003498,-0.00001185,-0.00001427,-0.00000939,-0.00240743,0.00149500,-0.
 00697721,0.00219455,0.00678759,0.00325489,0.00058841,0.03615633,0.0309
 7070\\0.00003492,0.00041283,-0.00002305,-0.00001477,-0.00030260,-0.000
 01495,-0.00001262,-0.00001192,0.00006807,0.00000726,-0.00002899,0.0000
 0281,-0.00001292,-0.00003567,-0.00001542,0.00002015,0.00004408,0.00003
 784,0.00000039,-0.00003621,-0.00005374,0.00000243,0.00002332,-0.000000
 35,-0.00001444,0.00003907,0.00001053,0.00000868,0.00001825,-0.00001390
 ,0.00000532,0.00000767,0.00002007,-0.00003162,-0.00005432,-0.00001232,
 0.00000424,-0.00000362,-0.00000572,0.00000708,-0.00001096,0.00001299,-
 0.00001616,-0.00001337,0.00001128,-0.00000231,0.00000790,0.00000086,-0
 .00000143,-0.00000307,-0.00000626,0.00001010,-0.00002647,-0.00000892,-
 0.00002036,-0.00001429,0.00000237,0.00002605,-0.00001163,-0.00001218\\
 \@


 Change starts when someone sees the next step.
                            -- William Drayton
 Job cpu time:       0 days  1 hours 42 minutes 26.2 seconds.
 Elapsed time:       0 days  0 hours  8 minutes 32.7 seconds.
 File lengths (MBytes):  RWF=    162 Int=      0 D2E=      0 Chk=     32 Scr=      1
 Normal termination of Gaussian 16 at Fri Jun 10 03:30:29 2022.
