 Entering Gaussian System, Link 0=g16
 Input=int_zmat_field_N100.gjf
 Output=int_zmat_field_N100.out
 Initial command:
 /software/gaussian/g16-a03/l1.exe "/local_scratch/11171406/Gau-30379.inp" -scrdir="/local_scratch/11171406/"
 Entering Link 1 = /software/gaussian/g16-a03/l1.exe PID=     30380.
  
 Copyright (c) 1988,1990,1992,1993,1995,1998,2003,2009,2016,
            Gaussian, Inc.  All Rights Reserved.
  
 This is part of the Gaussian(R) 16 program.  It is based on
 the Gaussian(R) 09 system (copyright 2009, Gaussian, Inc.),
 the Gaussian(R) 03 system (copyright 2003, Gaussian, Inc.),
 the Gaussian(R) 98 system (copyright 1998, Gaussian, Inc.),
 the Gaussian(R) 94 system (copyright 1995, Gaussian, Inc.),
 the Gaussian 92(TM) system (copyright 1992, Gaussian, Inc.),
 the Gaussian 90(TM) system (copyright 1990, Gaussian, Inc.),
 the Gaussian 88(TM) system (copyright 1988, Gaussian, Inc.),
 the Gaussian 86(TM) system (copyright 1986, Carnegie Mellon
 University), and the Gaussian 82(TM) system (copyright 1983,
 Carnegie Mellon University). Gaussian is a federally registered
 trademark of Gaussian, Inc.
  
 This software contains proprietary and confidential information,
 including trade secrets, belonging to Gaussian, Inc.
  
 This software is provided under written license and may be
 used, copied, transmitted, or stored only in accord with that
 written license.
  
 The following legend is applicable only to US Government
 contracts under FAR:
  
                    RESTRICTED RIGHTS LEGEND
  
 Use, reproduction and disclosure by the US Government is
 subject to restrictions as set forth in subparagraphs (a)
 and (c) of the Commercial Computer Software - Restricted
 Rights clause in FAR 52.227-19.
  
 Gaussian, Inc.
 340 Quinnipiac St., Bldg. 40, Wallingford CT 06492
  
  
 ---------------------------------------------------------------
 Warning -- This program may not be used in any manner that
 competes with the business of Gaussian, Inc. or will provide
 assistance to any competitor of Gaussian, Inc.  The licensee
 of this program is prohibited from giving any competitor of
 Gaussian, Inc. access to this program.  By using this program,
 the user acknowledges that Gaussian, Inc. is engaged in the
 business of creating and licensing software in the field of
 computational chemistry and represents and warrants to the
 licensee that it is not a competitor of Gaussian, Inc. and that
 it will not use this program in any manner prohibited above.
 ---------------------------------------------------------------
  

 Cite this work as:
 Gaussian 16, Revision A.03,
 M. J. Frisch, G. W. Trucks, H. B. Schlegel, G. E. Scuseria, 
 M. A. Robb, J. R. Cheeseman, G. Scalmani, V. Barone, 
 G. A. Petersson, H. Nakatsuji, X. Li, M. Caricato, A. V. Marenich, 
 J. Bloino, B. G. Janesko, R. Gomperts, B. Mennucci, H. P. Hratchian, 
 J. V. Ortiz, A. F. Izmaylov, J. L. Sonnenberg, D. Williams-Young, 
 F. Ding, F. Lipparini, F. Egidi, J. Goings, B. Peng, A. Petrone, 
 T. Henderson, D. Ranasinghe, V. G. Zakrzewski, J. Gao, N. Rega, 
 G. Zheng, W. Liang, M. Hada, M. Ehara, K. Toyota, R. Fukuda, 
 J. Hasegawa, M. Ishida, T. Nakajima, Y. Honda, O. Kitao, H. Nakai, 
 T. Vreven, K. Throssell, J. A. Montgomery, Jr., J. E. Peralta, 
 F. Ogliaro, M. J. Bearpark, J. J. Heyd, E. N. Brothers, K. N. Kudin, 
 V. N. Staroverov, T. A. Keith, R. Kobayashi, J. Normand, 
 K. Raghavachari, A. P. Rendell, J. C. Burant, S. S. Iyengar, 
 J. Tomasi, M. Cossi, J. M. Millam, M. Klene, C. Adamo, R. Cammi, 
 J. W. Ochterski, R. L. Martin, K. Morokuma, O. Farkas, 
 J. B. Foresman, and D. J. Fox, Gaussian, Inc., Wallingford CT, 2016.
 
 ******************************************
 Gaussian 16:  ES64L-G16RevA.03 25-Dec-2016
                10-Jun-2022 
 ******************************************
 %nprocshared=12
 Will use up to   12 processors via shared memory.
 %chk=checkpoint.chk
 %mem=12GB
 ----------------------------------------------------------------------
 # Opt=(Z-matrix, MaxStep=10) B3LYP/Def2TZVP geom=allcheckpoint guess=r
 ead Field=read NoSymm freq=noraman pop=none
 ----------------------------------------------------------------------
 1/8=10,10=7,18=40,26=3,29=7,38=1/1,3;
 2/12=2,15=1,29=3,40=1/2;
 3/5=44,7=101,11=2,14=-6,25=1,30=1,71=1,74=-5,116=-2/1,2,3;
 4/5=1/1;
 5/5=2,38=6/2;
 7/29=1,30=1/1,2,3,16;
 1/8=10,10=7,18=40,26=3/3(2);
 2/15=1,29=3/2;
 99//99;
 2/15=1,29=3/2;
 3/5=44,7=101,11=2,14=-2,25=1,30=1,71=1,74=-5/1,2,3;
 4/5=5,16=3,69=1/1;
 5/5=2,38=5/2;
 7/30=1/1,2,3,16;
 1/8=10,18=40,26=3/3(-5);
 2/15=1,29=3/2;
 99/9=1/99;
 Structure from the checkpoint file:  "checkpoint.chk"
 ------------------
 int_zmat_initalOpt
 ------------------
 Charge =  0 Multiplicity = 1
 Z-Matrix found in chk file.
 C
 C,1,R2
 C,1,R3,2,A3
 H,1,R4,2,A4,3,D4,0
 H,1,R5,2,A5,3,D5,0
 C,2,R6,1,A6,3,D6,0
 C,3,R7,1,A7,2,D7,0
 H,2,R8,1,A8,6,D8,0
 H,2,R9,1,A9,6,D9,0
 H,3,R10,1,A10,7,D10,0
 C,7,R11,3,A11,1,D11,0
 C,6,R12,2,A12,1,D12,0
 H,7,R13,3,A13,11,D13,0
 H,6,R14,2,A14,12,D14,0
 C,12,R15,6,A15,2,D15,0
 H,11,R16,7,A16,3,D16,0
 H,11,R17,7,A17,16,D17,0
 H,12,R18,6,A18,15,D18,0
 H,15,R19,12,A19,6,D19,0
 H,15,R20,12,A20,19,D20,0
      Variables:
 R2=1.54690479
 R3=1.54451946
 R4=1.08985172
 R5=1.09267945
 R6=1.55111038
 R7=1.49077372
 R8=1.09165857
 R9=1.08790747
 R10=1.0968233
 R11=1.32809815
 R12=1.49846743
 R13=1.08809072
 R14=1.09353422
 R15=1.32677029
 R16=1.08245049
 R17=1.0836958
 R18=1.08683814
 R19=1.08301065
 R20=1.08194203
 A3=88.85815462
 A4=111.03266185
 A5=118.06423513
 A6=89.38255461
 A7=121.83719853
 A8=112.086519
 A9=117.41942201
 A10=109.30603845
 A11=126.34965804
 A12=117.45620856
 A13=115.23399855
 A14=114.90822887
 A15=127.48961874
 A16=121.36364836
 A17=121.95485171
 A18=114.42976279
 A19=122.83650037
 A20=120.97107036
 D4=-112.67687591
 D5=120.74809993
 D6=19.31239589
 D7=-144.19727193
 D8=-112.5435057
 D9=121.03623228
 D10=-127.65636434
 D11=-5.9739706
 D12=98.00385321
 D13=-180.44182782
 D14=129.23551194
 D15=14.33553203
 D16=-181.05921207
 D17=182.09676061
 D18=178.29882863
 D19=-0.72235871
 D20=178.85025015
 Recover connectivity data from disk.

 GradGradGradGradGradGradGradGradGradGradGradGradGradGradGradGradGradGrad
 Berny optimization.
 Initialization pass.
                       ----------------------------
                       !    Initial Parameters    !
                       ! (Angstroms and Degrees)  !
 ----------------------                            ----------------------
 !      Name          Value   Derivative information (Atomic Units)     !
 ------------------------------------------------------------------------
 !       R2          1.5469   estimate D2E/DX2                          !
 !       R3          1.5445   estimate D2E/DX2                          !
 !       R4          1.0899   estimate D2E/DX2                          !
 !       R5          1.0927   estimate D2E/DX2                          !
 !       R6          1.5511   estimate D2E/DX2                          !
 !       R7          1.4908   estimate D2E/DX2                          !
 !       R8          1.0917   estimate D2E/DX2                          !
 !       R9          1.0879   estimate D2E/DX2                          !
 !       R10         1.0968   estimate D2E/DX2                          !
 !       R11         1.3281   estimate D2E/DX2                          !
 !       R12         1.4985   estimate D2E/DX2                          !
 !       R13         1.0881   estimate D2E/DX2                          !
 !       R14         1.0935   estimate D2E/DX2                          !
 !       R15         1.3268   estimate D2E/DX2                          !
 !       R16         1.0825   estimate D2E/DX2                          !
 !       R17         1.0837   estimate D2E/DX2                          !
 !       R18         1.0868   estimate D2E/DX2                          !
 !       R19         1.083    estimate D2E/DX2                          !
 !       R20         1.0819   estimate D2E/DX2                          !
 !       A3         88.8582   estimate D2E/DX2                          !
 !       A4        111.0327   estimate D2E/DX2                          !
 !       A5        118.0642   estimate D2E/DX2                          !
 !       A6         89.3826   estimate D2E/DX2                          !
 !       A7        121.8372   estimate D2E/DX2                          !
 !       A8        112.0865   estimate D2E/DX2                          !
 !       A9        117.4194   estimate D2E/DX2                          !
 !       A10       109.306    estimate D2E/DX2                          !
 !       A11       126.3497   estimate D2E/DX2                          !
 !       A12       117.4562   estimate D2E/DX2                          !
 !       A13       115.234    estimate D2E/DX2                          !
 !       A14       114.9082   estimate D2E/DX2                          !
 !       A15       127.4896   estimate D2E/DX2                          !
 !       A16       121.3636   estimate D2E/DX2                          !
 !       A17       121.9549   estimate D2E/DX2                          !
 !       A18       114.4298   estimate D2E/DX2                          !
 !       A19       122.8365   estimate D2E/DX2                          !
 !       A20       120.9711   estimate D2E/DX2                          !
 !       D4       -112.6769   estimate D2E/DX2                          !
 !       D5        120.7481   estimate D2E/DX2                          !
 !       D6         19.3124   estimate D2E/DX2                          !
 !       D7       -144.1973   estimate D2E/DX2                          !
 !       D8       -112.5435   estimate D2E/DX2                          !
 !       D9        121.0362   estimate D2E/DX2                          !
 !       D10      -127.6564   estimate D2E/DX2                          !
 !       D11        -5.974    estimate D2E/DX2                          !
 !       D12        98.0039   estimate D2E/DX2                          !
 !       D13      -180.4418   estimate D2E/DX2                          !
 !       D14       129.2355   estimate D2E/DX2                          !
 !       D15        14.3355   estimate D2E/DX2                          !
 !       D16      -181.0592   estimate D2E/DX2                          !
 !       D17       182.0968   estimate D2E/DX2                          !
 !       D18       178.2988   estimate D2E/DX2                          !
 !       D19        -0.7224   estimate D2E/DX2                          !
 !       D20       178.8503   estimate D2E/DX2                          !
 ------------------------------------------------------------------------
 Trust Radius=1.00D-01 FncErr=1.00D-07 GrdErr=1.00D-06 EigMax=2.50D+02 EigMin=1.00D-04
 Number of steps in this run=     64 maximum allowed number of steps=    108.
 GradGradGradGradGradGradGradGradGradGradGradGradGradGradGradGradGradGrad

 ---------------------------------------------------------------------------------------------------
                            Z-MATRIX (ANGSTROMS AND DEGREES)
   CD    Cent   Atom    N1       Length/X        N2       Alpha/Y        N3        Beta/Z          J
 ---------------------------------------------------------------------------------------------------
      1      1  C 
      2      2  C        1   1.546905(     1)
      3      3  C        1   1.544519(     2)      2   88.858(    20)
      4      4  H        1   1.089852(     3)      2  111.033(    21)      3 -112.677(    38)      0
      5      5  H        1   1.092679(     4)      2  118.064(    22)      3  120.748(    39)      0
      6      6  C        2   1.551110(     5)      1   89.383(    23)      3   19.312(    40)      0
      7      7  C        3   1.490774(     6)      1  121.837(    24)      2 -144.197(    41)      0
      8      8  H        2   1.091659(     7)      1  112.087(    25)      6 -112.544(    42)      0
      9      9  H        2   1.087907(     8)      1  117.419(    26)      6  121.036(    43)      0
     10     10  H        3   1.096823(     9)      1  109.306(    27)      7 -127.656(    44)      0
     11     11  C        7   1.328098(    10)      3  126.350(    28)      1   -5.974(    45)      0
     12     12  C        6   1.498467(    11)      2  117.456(    29)      1   98.004(    46)      0
     13     13  H        7   1.088091(    12)      3  115.234(    30)     11 -180.442(    47)      0
     14     14  H        6   1.093534(    13)      2  114.908(    31)     12  129.236(    48)      0
     15     15  C       12   1.326770(    14)      6  127.490(    32)      2   14.336(    49)      0
     16     16  H       11   1.082450(    15)      7  121.364(    33)      3 -181.059(    50)      0
     17     17  H       11   1.083696(    16)      7  121.955(    34)     16  182.097(    51)      0
     18     18  H       12   1.086838(    17)      6  114.430(    35)     15  178.299(    52)      0
     19     19  H       15   1.083011(    18)     12  122.837(    36)      6   -0.722(    53)      0
     20     20  H       15   1.081942(    19)     12  120.971(    37)     19  178.850(    54)      0
 ---------------------------------------------------------------------------------------------------
                         Z-Matrix orientation:                         
 ---------------------------------------------------------------------
 Center     Atomic      Atomic             Coordinates (Angstroms)
 Number     Number       Type             X           Y           Z
 ---------------------------------------------------------------------
      1          6           0        0.000000    0.000000    0.000000
      2          6           0        0.000000    0.000000    1.546905
      3          6           0        1.544213    0.000000    0.030779
      4          1           0       -0.392181    0.938602   -0.391148
      5          1           0       -0.492963   -0.828659   -0.514063
      6          6           0        1.463744    0.512951    1.530190
      7          6           0        2.350920    0.740890   -0.980513
      8          1           0       -0.057015   -1.009941    1.957375
      9          1           0       -0.743526    0.616222    2.047887
     10          1           0        1.906098   -1.034603    0.071481
     11          6           0        1.883632    1.370112   -2.052692
     12          6           0        1.682143    1.984730    1.707879
     13          1           0        3.423090    0.758797   -0.795929
     14          1           0        2.146036   -0.019556    2.198569
     15          6           0        0.807014    2.884926    2.136967
     16          1           0        2.543888    1.899392   -2.727691
     17          1           0        0.824475    1.409064   -2.278667
     18          1           0        2.689231    2.320968    1.475643
     19          1           0       -0.211248    2.632401    2.405829
     20          1           0        1.088240    3.923091    2.254114
 ---------------------------------------------------------------------
                    Distance matrix (angstroms):
                    1          2          3          4          5
     1  C    0.000000
     2  C    1.546905   0.000000
     3  C    1.544519   2.164078   0.000000
     4  H    1.089852   2.188796   2.192856   0.000000
     5  H    1.092679   2.275363   2.265748   1.774395   0.000000
     6  C    2.178794   1.551110   1.586766   2.705027   3.131707
     7  C    2.652763   3.530380   1.490774   2.812658   3.281574
     8  H    2.203304   1.091659   2.701053   3.069971   2.516132
     9  H    2.264156   1.087907   3.111624   2.485209   2.951957
    10  H    2.169960   2.623069   1.096823   3.064254   2.478058
    11  C    3.104645   4.287467   2.516597   2.850659   3.584714
    12  C    3.112171   2.606659   2.602084   3.130992   4.193240
    13  H    3.595389   4.216894   2.188470   3.840895   4.234966
    14  H    3.072386   2.242882   2.249864   3.750632   3.870056
    15  C    3.679769   3.053235   3.647231   3.408462   4.744324
    16  H    4.185613   5.324587   3.495168   3.873377   4.643799
    17  H    2.803131   4.159354   2.799469   2.294410   3.139566
    18  H    3.846606   3.553018   2.964050   3.858878   4.899534
    19  H    3.572418   2.777033   3.956266   3.274869   4.536967
    20  H    4.653594   4.132197   4.532304   4.253966   5.722074
                    6          7          8          9         10
     6  C    0.000000
     7  C    2.672577   0.000000
     8  H    2.194173   4.182673   0.000000
     9  H    2.269518   4.331552   1.767455   0.000000
    10  H    2.172195   2.111146   2.722318   3.694849   0.000000
    11  C    3.707839   1.328098   5.050882   4.927987   3.208625
    12  C    1.498467   3.036750   3.472027   2.805760   3.441558
    13  H    3.051280   1.088091   4.777055   5.046613   2.503987
    14  H    1.093534   3.275182   2.427441   2.962513   2.369049
    15  C    2.534904   4.086468   3.993594   2.749387   4.564748
    16  H    4.606352   2.105230   6.097439   5.937993   4.104932
    17  H    3.964729   2.112272   4.957083   4.669721   3.558738
    18  H    2.184884   2.940034   4.343833   3.875235   3.720863
    19  H    2.839790   4.648637   3.673085   2.115755   4.835209
    20  H    3.506298   4.709944   5.072916   3.785932   5.478276
                   11         12         13         14         15
    11  C    0.000000
    12  C    3.815789   0.000000
    13  H    2.079204   3.286771   0.000000
    14  H    4.480318   2.114979   3.347196   0.000000
    15  C    4.583341   1.326770   4.468351   3.198873   0.000000
    16  H    1.082450   4.519311   2.409493   5.301763   5.258604
    17  H    1.083696   4.118195   3.061725   4.881918   4.655782
    18  H    3.741960   1.086838   2.852887   2.509130   2.073196
    19  H    5.085303   2.119325   5.193270   3.554239   1.083011
    20  H    5.069412   2.099604   4.976650   4.082460   1.081942
                   16         17         18         19         20
    16  H    0.000000
    17  H    1.843482   0.000000
    18  H    4.226922   4.289957   0.000000
    19  H    5.872061   4.951139   3.061865   0.000000
    20  H    5.570696   5.189991   2.394993   1.837816   0.000000
 Symmetry turned off by external request.
 Stoichiometry    C8H12
 Framework group  C1[X(C8H12)]
 Deg. of freedom    54
 Full point group                 C1      NOp   1
 Rotational constants (GHZ):           2.8022290           1.6930717           1.3165611
 Standard basis: def2TZVP (5D, 7F)
 The following finite field(s) will be applied:
 An electric field of             -0.0026 -0.0084 -0.0047
   320 basis functions,   504 primitive gaussians,   360 cartesian basis functions
    30 alpha electrons       30 beta electrons
       nuclear repulsion energy       360.4115063802 Hartrees.
 NAtoms=   20 NActive=   20 NUniq=   20 SFac= 1.00D+00 NAtFMM=   60 NAOKFM=F Big=F
 Integral buffers will be    131072 words long.
 Raffenetti 2 integral format.
 Two-electron integral symmetry is turned off.
 One-electron integrals computed using PRISM.
   1 Symmetry operations used in ECPInt.
 ECPInt:  NShTT=    9316 NPrTT=   27240 LenC2=    9174 LenP2D=   21654.
 LDataN:  DoStor=T MaxTD1= 6 Len=  172
 NBasis=   320 RedAO= T EigKep=  3.50D-05  NBF=   320
 NBsUse=   320 1.00D-06 EigRej= -1.00D+00 NBFU=   320
 The nuclear repulsion energy is now       358.8972020927 hartrees.
 Initial guess from the checkpoint file:  "checkpoint.chk"
 B after Tr=     0.000000    0.000000    0.000000
         Rot=    1.000000   -0.000000   -0.000000    0.000000 Ang=   0.00 deg.
 Requested convergence on RMS density matrix=1.00D-08 within 128 cycles.
 Requested convergence on MAX density matrix=1.00D-06.
 Requested convergence on             energy=1.00D-06.
 No special actions if energy rises.
 SCF Done:  E(RB3LYP) =  -312.120237219     A.U. after   10 cycles
            NFock= 10  Conv=0.44D-08     -V/T= 2.0056
   1 Symmetry operations used in ECPInt.
 ECPInt:  NShTT=    9316 NPrTT=   27240 LenC2=    9174 LenP2D=   21654.
 LDataN:  DoStor=T MaxTD1= 7 Len=  274
 Calling FoFJK, ICntrl=      2127 FMM=F ISym2X=0 I1Cent= 0 IOpClX= 0 NMat=1 NMatS=1 NMatT=0.
 -------------------------------------------------------------------
 Center     Atomic                   Forces (Hartrees/Bohr)
 Number     Number              X              Y              Z
 -------------------------------------------------------------------
      1        6           0.000222280   -0.000099349    0.000315132
      2        6          -0.000198481    0.000644586    0.000050202
      3        6           0.000041798    0.000341461   -0.000091389
      4        1           0.000021222    0.000015797    0.000055985
      5        1          -0.000315506   -0.000450631   -0.000350833
      6        6           0.000080403    0.000061631    0.000166734
      7        6           0.000074482   -0.000463029   -0.000102007
      8        1          -0.000012764   -0.000323742    0.000124922
      9        1           0.000155923    0.000008938   -0.000032720
     10        1           0.000138426   -0.000383795    0.000027444
     11        6           0.000154873   -0.000506990   -0.000569175
     12        6          -0.000007637    0.000636312   -0.000307878
     13        1          -0.000100205    0.000256694    0.000142905
     14        1          -0.000095081   -0.000108812   -0.000049530
     15        6           0.000139868   -0.000179516   -0.000294848
     16        1          -0.000035397    0.000284567    0.000206238
     17        1          -0.000129908    0.000244139    0.000178412
     18        1          -0.000036608   -0.000033664    0.000186785
     19        1          -0.000031028    0.000095997    0.000172942
     20        1          -0.000066660   -0.000040594    0.000170678
 -------------------------------------------------------------------
 Cartesian Forces:  Max     0.000644586 RMS     0.000240235
 -----------------------------------------------------------------------------------------------
                       Internal Coordinate Forces (Hartree/Bohr or radian)
  Cent   Atom   N1       Length/X         N2         Alpha/Y        N3         Beta/Z          J
 -----------------------------------------------------------------------------------------------
      1  C 
      2  C        1   0.000187(     1)
      3  C        1   0.000140(     2)      2   0.000628(    20)
      4  H        1  -0.000014(     3)      2  -0.000112(    21)      3   0.000049(    38)     0
      5  H        1   0.000649(     4)      2   0.000106(    22)      3   0.000074(    39)     0
      6  C        2   0.000126(     5)      1   0.000281(    23)      3   0.000995(    40)     0
      7  C        3  -0.000014(     6)      1  -0.000135(    24)      2  -0.000147(    41)     0
      8  H        2   0.000347(     7)      1  -0.000012(    25)      6   0.000011(    42)     0
      9  H        2  -0.000117(     8)      1   0.000049(    26)      6  -0.000194(    43)     0
     10  H        3   0.000409(     9)      1   0.000008(    27)      7  -0.000024(    44)     0
     11  C        7   0.000163(    10)      3   0.000053(    28)      1  -0.000192(    45)     0
     12  C        6   0.000461(    11)      2  -0.000209(    29)      1   0.000294(    46)     0
     13  H        7  -0.000070(    12)      3   0.000014(    30)     11  -0.000562(    47)     0
     14  H        6  -0.000037(    13)      2  -0.000250(    31)     12   0.000161(    48)     0
     15  C       12  -0.000096(    14)      6  -0.000107(    32)      2   0.000060(    49)     0
     16  H       11  -0.000011(    15)      7  -0.000032(    33)      3  -0.000075(    50)     0
     17  H       11   0.000099(    16)      7  -0.000084(    34)     16   0.000541(    51)     0
     18  H       12  -0.000084(    17)      6   0.000042(    35)     15  -0.000323(    52)     0
     19  H       15   0.000050(    18)     12   0.000279(    36)      6  -0.000026(    53)     0
     20  H       15  -0.000038(    19)     12   0.000217(    37)     19  -0.000263(    54)     0
 -----------------------------------------------------------------------------------------------
 Internal  Forces:  Max     0.000995412 RMS     0.000266782

 GradGradGradGradGradGradGradGradGradGradGradGradGradGradGradGradGradGrad
 Berny optimization.
 Search for a local minimum.
 Step number   1 out of a maximum of   64
 All quantities printed in internal units (Hartrees-Bohrs-Radians)
 Second derivative matrix not updated -- first step.
 ITU=  0
     Eigenvalues ---    0.03326   0.03587   0.05028   0.05770   0.08672
     Eigenvalues ---    0.10147   0.11587   0.11938   0.13027   0.13950
     Eigenvalues ---    0.16572   0.17097   0.18273   0.18395   0.18596
     Eigenvalues ---    0.19606   0.20553   0.20789   0.21352   0.23242
     Eigenvalues ---    0.23871   0.27511   0.28822   0.29790   0.30613
     Eigenvalues ---    0.32538   0.32576   0.33365   0.34036   0.34409
     Eigenvalues ---    0.34505   0.34622   0.34830   0.35035   0.35056
     Eigenvalues ---    0.35181   0.35552   0.35632   0.35700   0.35761
     Eigenvalues ---    0.40662   0.41911   0.42271   0.47599   0.48657
     Eigenvalues ---    0.52033   0.53749   0.55434   0.59958   0.60277
     Eigenvalues ---    0.66816   0.89938   1.26788   4.96751
 RFO step:  Lambda=-1.87226376D-05 EMin= 3.32586099D-02
 Linear search not attempted -- first point.
 Variable       Old X    -DE/DX   Delta X   Delta X   Delta X     New X
                                 (Linear)    (Quad)   (Total)
    R2        2.92323   0.00019   0.00000   0.00019   0.00019   2.92341
    R3        2.91872   0.00014   0.00000   0.00010   0.00010   2.91882
    R4        2.05952  -0.00001   0.00000  -0.00004  -0.00004   2.05948
    R5        2.06486   0.00065   0.00000   0.00188   0.00188   2.06675
    R6        2.93117   0.00013   0.00000   0.00070   0.00070   2.93188
    R7        2.81715  -0.00001   0.00000  -0.00004  -0.00004   2.81711
    R8        2.06294   0.00035   0.00000   0.00101   0.00101   2.06394
    R9        2.05585  -0.00012   0.00000  -0.00034  -0.00034   2.05551
   R10        2.07270   0.00041   0.00000   0.00121   0.00121   2.07390
   R11        2.50974   0.00016   0.00000   0.00027   0.00027   2.51002
   R12        2.83169   0.00046   0.00000   0.00140   0.00140   2.83309
   R13        2.05619  -0.00007   0.00000  -0.00019  -0.00019   2.05600
   R14        2.06648  -0.00004   0.00000  -0.00009  -0.00009   2.06639
   R15        2.50723  -0.00010   0.00000  -0.00016  -0.00016   2.50707
   R16        2.04553  -0.00001   0.00000  -0.00003  -0.00003   2.04551
   R17        2.04789   0.00010   0.00000   0.00028   0.00028   2.04817
   R18        2.05383  -0.00008   0.00000  -0.00023  -0.00023   2.05360
   R19        2.04659   0.00005   0.00000   0.00014   0.00014   2.04673
   R20        2.04457  -0.00004   0.00000  -0.00011  -0.00011   2.04447
    A3        1.55087   0.00063   0.00000  -0.00002  -0.00002   1.55084
    A4        1.93789  -0.00011   0.00000  -0.00054  -0.00054   1.93734
    A5        2.06061   0.00011   0.00000   0.00051   0.00051   2.06112
    A6        1.56002   0.00028   0.00000  -0.00114  -0.00114   1.55888
    A7        2.12646  -0.00013   0.00000  -0.00024  -0.00024   2.12622
    A8        1.95628  -0.00001   0.00000   0.00054   0.00054   1.95682
    A9        2.04936   0.00005   0.00000   0.00027   0.00027   2.04963
   A10        1.90775   0.00001   0.00000   0.00050   0.00050   1.90825
   A11        2.20522   0.00005   0.00000   0.00019   0.00019   2.20540
   A12        2.05000  -0.00021   0.00000   0.00084   0.00084   2.05084
   A13        2.01121   0.00001   0.00000  -0.00010  -0.00010   2.01111
   A14        2.00553  -0.00025   0.00000  -0.00136  -0.00136   2.00417
   A15        2.22511  -0.00011   0.00000   0.00035   0.00035   2.22546
   A16        2.11820  -0.00003   0.00000  -0.00007  -0.00007   2.11812
   A17        2.12851  -0.00008   0.00000  -0.00034  -0.00034   2.12817
   A18        1.99718   0.00004   0.00000  -0.00030  -0.00030   1.99687
   A19        2.14390   0.00028   0.00000   0.00095   0.00095   2.14485
   A20        2.11134   0.00022   0.00000  -0.00008  -0.00008   2.11126
    D4       -1.96658   0.00005   0.00000   0.00028   0.00028  -1.96630
    D5        2.10745   0.00007   0.00000   0.00045   0.00045   2.10790
    D6        0.33706   0.00100   0.00000   0.00398   0.00398   0.34105
    D7       -2.51672  -0.00015   0.00000  -0.00352  -0.00352  -2.52024
    D8       -1.96425   0.00001   0.00000  -0.00027  -0.00027  -1.96452
    D9        2.11248  -0.00019   0.00000  -0.00192  -0.00192   2.11056
   D10       -2.22802  -0.00002   0.00000  -0.00069  -0.00069  -2.22871
   D11       -0.10427  -0.00019   0.00000   0.00043   0.00043  -0.10383
   D12        1.71049   0.00029   0.00000  -0.00294  -0.00294   1.70755
   D13       -3.14930  -0.00056   0.00000  -0.00578  -0.00578  -3.15509
   D14        2.25559   0.00016   0.00000   0.00060   0.00060   2.25618
   D15        0.25020   0.00006   0.00000   0.00275   0.00275   0.25295
   D16       -3.16008  -0.00008   0.00000  -0.00773  -0.00773  -3.16781
   D17        3.17819   0.00054   0.00000   0.00897   0.00897   3.18715
   D18        3.11190  -0.00032   0.00000  -0.00500  -0.00500   3.10690
   D19       -0.01261  -0.00003   0.00000  -0.00160  -0.00160  -0.01421
   D20        3.12153  -0.00026   0.00000  -0.00343  -0.00343   3.11809
         Item               Value     Threshold  Converged?
 Maximum Force            0.000995     0.000450     NO 
 RMS     Force            0.000267     0.000300     YES
 Maximum Displacement     0.008965     0.001800     NO 
 RMS     Displacement     0.002268     0.001200     NO 
 Predicted change in Energy=-9.361318D-06
 GradGradGradGradGradGradGradGradGradGradGradGradGradGradGradGradGradGrad

 ---------------------------------------------------------------------------------------------------
                            Z-MATRIX (ANGSTROMS AND DEGREES)
   CD    Cent   Atom    N1       Length/X        N2       Alpha/Y        N3        Beta/Z          J
 ---------------------------------------------------------------------------------------------------
      1      1  C 
      2      2  C        1   1.547003(     1)
      3      3  C        1   1.544571(     2)      2   88.857(    20)
      4      4  H        1   1.089831(     3)      2  111.002(    21)      3 -112.661(    38)      0
      5      5  H        1   1.093675(     4)      2  118.093(    22)      3  120.774(    39)      0
      6      6  C        2   1.551482(     5)      1   89.317(    23)      3   19.541(    40)      0
      7      7  C        3   1.490752(     6)      1  121.823(    24)      2 -144.399(    41)      0
      8      8  H        2   1.092191(     7)      1  112.117(    25)      6 -112.559(    42)      0
      9      9  H        2   1.087729(     8)      1  117.435(    26)      6  120.926(    43)      0
     10     10  H        3   1.097462(     9)      1  109.335(    27)      7 -127.696(    44)      0
     11     11  C        7   1.328243(    10)      3  126.360(    28)      1   -5.949(    45)      0
     12     12  C        6   1.499207(    11)      2  117.504(    29)      1   97.835(    46)      0
     13     13  H        7   1.087990(    12)      3  115.228(    30)     11 -180.773(    47)      0
     14     14  H        6   1.093487(    13)      2  114.830(    31)     12  129.270(    48)      0
     15     15  C       12   1.326685(    14)      6  127.510(    32)      2   14.493(    49)      0
     16     16  H       11   1.082437(    15)      7  121.359(    33)      3 -181.502(    50)      0
     17     17  H       11   1.083843(    16)      7  121.935(    34)     16  182.610(    51)      0
     18     18  H       12   1.086717(    17)      6  114.412(    35)     15  178.012(    52)      0
     19     19  H       15   1.083084(    18)     12  122.891(    36)      6   -0.814(    53)      0
     20     20  H       15   1.081885(    19)     12  120.967(    37)     19  178.654(    54)      0
 ---------------------------------------------------------------------------------------------------
                         Z-Matrix orientation:                         
 ---------------------------------------------------------------------
 Center     Atomic      Atomic             Coordinates (Angstroms)
 Number     Number       Type             X           Y           Z
 ---------------------------------------------------------------------
      1          6           0        0.000000    0.000000    0.000000
      2          6           0        0.000000    0.000000    1.547003
      3          6           0        1.544263    0.000000    0.030816
      4          1           0       -0.391988    0.938891   -0.390589
      5          1           0       -0.493650   -0.828967   -0.515025
      6          6           0        1.462019    0.518896    1.528510
      7          6           0        2.350733    0.737372   -0.983202
      8          1           0       -0.053276   -1.010418    1.958218
      9          1           0       -0.744567    0.614498    2.048167
     10          1           0        1.906790   -1.034874    0.075907
     11          6           0        1.883349    1.363303   -2.057442
     12          6           0        1.675872    1.992651    1.701526
     13          1           0        3.422252    0.760382   -0.796012
     14          1           0        2.145495   -0.009994    2.198473
     15          6           0        0.799216    2.891257    2.130565
     16          1           0        2.542820    1.896098   -2.730419
     17          1           0        0.823844    1.402623   -2.282427
     18          1           0        2.682415    2.330665    1.470069
     19          1           0       -0.218119    2.637500    2.402056
     20          1           0        1.078848    3.929734    2.248233
 ---------------------------------------------------------------------
                    Distance matrix (angstroms):
                    1          2          3          4          5
     1  C    0.000000
     2  C    1.547003   0.000000
     3  C    1.544571   2.164156   0.000000
     4  H    1.089831   2.188477   2.192754   0.000000
     5  H    1.093675   2.276584   2.266763   1.775145   0.000000
     6  C    2.177865   1.551482   1.587169   2.701237   3.133275
     7  C    2.652611   3.531515   1.490752   2.813239   3.280719
     8  H    2.204178   1.092191   2.699621   3.071063   2.518687
     9  H    2.264283   1.087729   3.112243   2.485372   2.952372
    10  H    2.170846   2.621247   1.097462   3.065574   2.480666
    11  C    3.104620   4.289245   2.516823   2.852312   3.582628
    12  C    3.110369   2.608272   2.603699   3.124644   4.193023
    13  H    3.594945   4.216599   2.188303   3.839878   4.235477
    14  H    3.071893   2.242244   2.249514   3.747325   3.872837
    15  C    3.679323   3.055922   3.650124   3.403956   4.744545
    16  H    4.185249   5.325172   3.495243   3.873519   4.642639
    17  H    2.802774   4.160601   2.799544   2.296158   3.136797
    18  H    3.845576   3.554331   2.966283   3.853704   4.900128
    19  H    3.574053   2.781204   3.960452   3.273281   4.538906
    20  H    4.654168   4.135027   4.536117   4.251104   5.723074
                    6          7          8          9         10
     6  C    0.000000
     7  C    2.673245   0.000000
     8  H    2.195352   4.181624   0.000000
     9  H    2.268966   4.334187   1.768142   0.000000
    10  H    2.173035   2.111788   2.717637   3.693228   0.000000
    11  C    3.708045   1.328243   5.050802   4.931803   3.209826
    12  C    1.499207   3.039560   3.474804   2.806776   3.444106
    13  H    3.050284   1.087990   4.775020   5.047081   2.505956
    14  H    1.093487   3.274711   2.427583   2.960581   2.369102
    15  C    2.535719   4.091695   3.997438   2.752033   4.567586
    16  H    4.604703   2.105306   6.096791   5.940059   4.107382
    17  H    3.963771   2.112329   4.957336   4.672804   3.560323
    18  H    2.185243   2.944000   4.345702   3.876033   3.724531
    19  H    2.841554   4.655047   3.678514   2.120123   4.838650
    20  H    3.506941   4.717101   5.076506   3.788886   5.481954
                   11         12         13         14         15
    11  C    0.000000
    12  C    3.816931   0.000000
    13  H    2.079169   3.287252   0.000000
    14  H    4.479674   2.116150   3.345225   0.000000
    15  C    4.587962   1.326685   4.470548   3.199114   0.000000
    16  H    1.082437   4.516974   2.409394   5.299531   5.259246
    17  H    1.083843   4.116547   3.061638   4.880646   4.657374
    18  H    3.744012   1.086717   2.854517   2.509490   2.072910
    19  H    5.091844   2.119853   5.196491   3.554903   1.083084
    20  H    5.076675   2.099433   4.980338   4.081871   1.081885
                   16         17         18         19         20
    16  H    0.000000
    17  H    1.843663   0.000000
    18  H    4.225214   4.289145   0.000000
    19  H    5.874927   4.955299   3.062000   0.000000
    20  H    5.573677   5.194054   2.394575   1.837296   0.000000
 Symmetry turned off by external request.
 Stoichiometry    C8H12
 Framework group  C1[X(C8H12)]
 Deg. of freedom    54
 Full point group                 C1      NOp   1
 Rotational constants (GHZ):           2.8028815           1.6912123           1.3154084
 Standard basis: def2TZVP (5D, 7F)
 The following finite field(s) will be applied:
 An electric field of             -0.0026 -0.0084 -0.0047
   320 basis functions,   504 primitive gaussians,   360 cartesian basis functions
    30 alpha electrons       30 beta electrons
       nuclear repulsion energy       360.3395696209 Hartrees.
 NAtoms=   20 NActive=   20 NUniq=   20 SFac= 1.00D+00 NAtFMM=   60 NAOKFM=F Big=F
 Integral buffers will be    131072 words long.
 Raffenetti 2 integral format.
 Two-electron integral symmetry is turned off.
 One-electron integrals computed using PRISM.
   1 Symmetry operations used in ECPInt.
 ECPInt:  NShTT=    9316 NPrTT=   27240 LenC2=    9173 LenP2D=   21652.
 LDataN:  DoStor=T MaxTD1= 6 Len=  172
 NBasis=   320 RedAO= T EigKep=  3.53D-05  NBF=   320
 NBsUse=   320 1.00D-06 EigRej= -1.00D+00 NBFU=   320
 The nuclear repulsion energy is now       358.8258896512 hartrees.
 Initial guess from the checkpoint file:  "checkpoint.chk"
 B after Tr=     0.000212   -0.004577   -0.000634
         Rot=    0.999998    0.001467    0.000276   -0.000981 Ang=   0.20 deg.
 Requested convergence on RMS density matrix=1.00D-08 within 128 cycles.
 Requested convergence on MAX density matrix=1.00D-06.
 Requested convergence on             energy=1.00D-06.
 No special actions if energy rises.
 SCF Done:  E(RB3LYP) =  -312.120248281     A.U. after    8 cycles
            NFock=  8  Conv=0.47D-08     -V/T= 2.0056
   1 Symmetry operations used in ECPInt.
 ECPInt:  NShTT=    9316 NPrTT=   27240 LenC2=    9173 LenP2D=   21652.
 LDataN:  DoStor=T MaxTD1= 7 Len=  274
 Calling FoFJK, ICntrl=      2127 FMM=F ISym2X=0 I1Cent= 0 IOpClX= 0 NMat=1 NMatS=1 NMatT=0.
 -------------------------------------------------------------------
 Center     Atomic                   Forces (Hartrees/Bohr)
 Number     Number              X              Y              Z
 -------------------------------------------------------------------
      1        6          -0.000054958   -0.000888155    0.000063001
      2        6           0.000000402    0.000813081   -0.000066473
      3        6          -0.000060043    0.000229434   -0.000125413
      4        1           0.000050963    0.000022375    0.000042182
      5        1          -0.000073554   -0.000008179   -0.000064029
      6        6           0.000162204   -0.000134295    0.000112420
      7        6          -0.000002120   -0.000089998    0.000022603
      8        1           0.000065770    0.000019615   -0.000021821
      9        1          -0.000009830    0.000021297    0.000007181
     10        1          -0.000047157   -0.000021562    0.000066776
     11        6           0.000030468   -0.000215002   -0.000192724
     12        6           0.000006374    0.000063097   -0.000109435
     13        1          -0.000004443    0.000093425    0.000045261
     14        1           0.000008294    0.000061765    0.000005440
     15        6           0.000015262   -0.000163584   -0.000097966
     16        1          -0.000009517    0.000100673    0.000073989
     17        1          -0.000021038    0.000077916    0.000072187
     18        1           0.000000140   -0.000012747    0.000046754
     19        1          -0.000011970    0.000006261    0.000070199
     20        1          -0.000045246    0.000024583    0.000049867
 -------------------------------------------------------------------
 Cartesian Forces:  Max     0.000888155 RMS     0.000174064
 -----------------------------------------------------------------------------------------------
                       Internal Coordinate Forces (Hartree/Bohr or radian)
  Cent   Atom   N1       Length/X         N2         Alpha/Y        N3         Beta/Z          J
 -----------------------------------------------------------------------------------------------
      1  C 
      2  C        1  -0.000004(     1)
      3  C        1  -0.000115(     2)      2  -0.000028(    20)
      4  H        1  -0.000014(     3)      2  -0.000082(    21)      3   0.000107(    38)     0
      5  H        1   0.000070(     4)      2   0.000073(    22)      3   0.000108(    39)     0
      6  C        2   0.000075(     5)      1   0.000234(    23)      3   0.000049(    40)     0
      7  C        3  -0.000034(     6)      1  -0.000028(    24)      2  -0.000080(    41)     0
      8  H        2  -0.000030(     7)      1  -0.000024(    25)      6   0.000124(    42)     0
      9  H        2   0.000022(     8)      1  -0.000007(    26)      6  -0.000019(    43)     0
     10  H        3   0.000007(     9)      1  -0.000106(    27)      7  -0.000131(    44)     0
     11  C        7   0.000021(    10)      3  -0.000023(    28)      1  -0.000124(    45)     0
     12  C        6  -0.000091(    11)      2  -0.000419(    29)      1   0.000051(    46)     0
     13  H        7   0.000005(    12)      3   0.000024(    30)     11  -0.000192(    47)     0
     14  H        6  -0.000021(    13)      2   0.000085(    31)     12  -0.000079(    48)     0
     15  C       12  -0.000055(    14)      6  -0.000399(    32)      2   0.000078(    49)     0
     16  H       11  -0.000002(    15)      7  -0.000019(    33)      3  -0.000035(    50)     0
     17  H       11   0.000008(    16)      7  -0.000045(    34)     16   0.000184(    51)     0
     18  H       12  -0.000014(    17)      6  -0.000003(    35)     15  -0.000087(    52)     0
     19  H       15   0.000027(    18)     12   0.000049(    36)      6   0.000053(    53)     0
     20  H       15   0.000017(    19)     12   0.000128(    37)     19  -0.000053(    54)     0
 -----------------------------------------------------------------------------------------------
 Internal  Forces:  Max     0.000418836 RMS     0.000110888

 GradGradGradGradGradGradGradGradGradGradGradGradGradGradGradGradGradGrad
 Berny optimization.
 Search for a local minimum.
 Step number   2 out of a maximum of   64
 All quantities printed in internal units (Hartrees-Bohrs-Radians)
 Update second derivatives using D2CorN and points    1    2
 DE= -1.11D-05 DEPred=-9.36D-06 R= 1.18D+00
 TightC=F SS=  1.41D+00  RLast= 1.67D-02 DXNew= 1.6818D-01 5.0001D-02
 Trust test= 1.18D+00 RLast= 1.67D-02 DXMaxT set to 1.00D-01
 ITU=  1  0
     Eigenvalues ---    0.02888   0.03499   0.04522   0.05755   0.08605
     Eigenvalues ---    0.10303   0.11480   0.11937   0.12984   0.13954
     Eigenvalues ---    0.16571   0.17097   0.18272   0.18390   0.18604
     Eigenvalues ---    0.19606   0.20550   0.20793   0.21357   0.23134
     Eigenvalues ---    0.23841   0.27506   0.28836   0.29818   0.30616
     Eigenvalues ---    0.32570   0.32587   0.33364   0.34033   0.34407
     Eigenvalues ---    0.34463   0.34633   0.34830   0.35035   0.35059
     Eigenvalues ---    0.35180   0.35551   0.35631   0.35700   0.35761
     Eigenvalues ---    0.40662   0.41911   0.42269   0.47605   0.48656
     Eigenvalues ---    0.52021   0.53722   0.55433   0.59956   0.60274
     Eigenvalues ---    0.66840   0.89974   1.26740   4.96741
 RFO step:  Lambda=-3.16126812D-06 EMin= 2.88785529D-02
 Quartic linear search produced a step of  0.22173.
 Variable       Old X    -DE/DX   Delta X   Delta X   Delta X     New X
                                 (Linear)    (Quad)   (Total)
    R2        2.92341  -0.00000   0.00004  -0.00022  -0.00018   2.92323
    R3        2.91882  -0.00011   0.00002  -0.00027  -0.00025   2.91857
    R4        2.05948  -0.00001  -0.00001  -0.00004  -0.00005   2.05943
    R5        2.06675   0.00007   0.00042  -0.00012   0.00029   2.06704
    R6        2.93188   0.00007   0.00016   0.00001   0.00016   2.93204
    R7        2.81711  -0.00003  -0.00001  -0.00013  -0.00014   2.81698
    R8        2.06394  -0.00003   0.00022  -0.00032  -0.00010   2.06385
    R9        2.05551   0.00002  -0.00007   0.00015   0.00008   2.05559
   R10        2.07390   0.00001   0.00027  -0.00022   0.00005   2.07395
   R11        2.51002   0.00002   0.00006  -0.00001   0.00005   2.51006
   R12        2.83309  -0.00009   0.00031  -0.00065  -0.00034   2.83275
   R13        2.05600   0.00001  -0.00004   0.00007   0.00002   2.05603
   R14        2.06639  -0.00002  -0.00002  -0.00006  -0.00008   2.06631
   R15        2.50707  -0.00006  -0.00004  -0.00009  -0.00013   2.50694
   R16        2.04551  -0.00000  -0.00001   0.00000  -0.00000   2.04551
   R17        2.04817   0.00001   0.00006  -0.00003   0.00003   2.04820
   R18        2.05360  -0.00001  -0.00005   0.00000  -0.00005   2.05355
   R19        2.04673   0.00003   0.00003   0.00007   0.00010   2.04683
   R20        2.04447   0.00002  -0.00002   0.00008   0.00006   2.04452
    A3        1.55084  -0.00003  -0.00001   0.00006   0.00006   1.55090
    A4        1.93734  -0.00008  -0.00012  -0.00068  -0.00080   1.93654
    A5        2.06112   0.00007   0.00011   0.00065   0.00076   2.06188
    A6        1.55888   0.00023  -0.00025   0.00038   0.00013   1.55901
    A7        2.12622  -0.00003  -0.00005   0.00010   0.00005   2.12627
    A8        1.95682  -0.00002   0.00012  -0.00017  -0.00005   1.95677
    A9        2.04963  -0.00001   0.00006   0.00008   0.00014   2.04977
   A10        1.90825  -0.00011   0.00011  -0.00040  -0.00029   1.90796
   A11        2.20540  -0.00002   0.00004  -0.00016  -0.00012   2.20528
   A12        2.05084  -0.00042   0.00019  -0.00131  -0.00113   2.04971
   A13        2.01111   0.00002  -0.00002   0.00017   0.00014   2.01125
   A14        2.00417   0.00009  -0.00030   0.00105   0.00075   2.00491
   A15        2.22546  -0.00040   0.00008  -0.00090  -0.00082   2.22464
   A16        2.11812  -0.00002  -0.00002  -0.00002  -0.00004   2.11808
   A17        2.12817  -0.00005  -0.00008  -0.00016  -0.00023   2.12794
   A18        1.99687  -0.00000  -0.00007   0.00033   0.00026   1.99713
   A19        2.14485   0.00005   0.00021   0.00009   0.00030   2.14516
   A20        2.11126   0.00013  -0.00002   0.00010   0.00008   2.11134
    D4       -1.96630   0.00011   0.00006   0.00104   0.00110  -1.96520
    D5        2.10790   0.00011   0.00010   0.00125   0.00135   2.10925
    D6        0.34105   0.00005   0.00088  -0.00116  -0.00028   0.34077
    D7       -2.52024  -0.00008  -0.00078   0.00095   0.00017  -2.52007
    D8       -1.96452   0.00012  -0.00006   0.00081   0.00076  -1.96377
    D9        2.11056  -0.00002  -0.00043   0.00058   0.00016   2.11072
   D10       -2.22871  -0.00013  -0.00015  -0.00055  -0.00070  -2.22941
   D11       -0.10383  -0.00012   0.00010  -0.00090  -0.00081  -0.10464
   D12        1.70755   0.00005  -0.00065   0.00064  -0.00001   1.70753
   D13       -3.15509  -0.00019  -0.00128  -0.00130  -0.00259  -3.15767
   D14        2.25618  -0.00008   0.00013  -0.00048  -0.00034   2.25584
   D15        0.25295   0.00008   0.00061   0.00119   0.00180   0.25475
   D16       -3.16781  -0.00003  -0.00171  -0.00247  -0.00418  -3.17199
   D17        3.18715   0.00018   0.00199   0.00295   0.00494   3.19210
   D18        3.10690  -0.00009  -0.00111  -0.00061  -0.00172   3.10518
   D19       -0.01421   0.00005  -0.00036   0.00044   0.00009  -0.01412
   D20        3.11809  -0.00005  -0.00076  -0.00046  -0.00122   3.11687
         Item               Value     Threshold  Converged?
 Maximum Force            0.000419     0.000450     YES
 RMS     Force            0.000111     0.000300     YES
 Maximum Displacement     0.004943     0.001800     NO 
 RMS     Displacement     0.001104     0.001200     YES
 Predicted change in Energy=-1.698366D-06
 GradGradGradGradGradGradGradGradGradGradGradGradGradGradGradGradGradGrad

 ---------------------------------------------------------------------------------------------------
                            Z-MATRIX (ANGSTROMS AND DEGREES)
   CD    Cent   Atom    N1       Length/X        N2       Alpha/Y        N3        Beta/Z          J
 ---------------------------------------------------------------------------------------------------
      1      1  C 
      2      2  C        1   1.546907(     1)
      3      3  C        1   1.544439(     2)      2   88.860(    20)
      4      4  H        1   1.089804(     3)      2  110.956(    21)      3 -112.598(    38)      0
      5      5  H        1   1.093830(     4)      2  118.137(    22)      3  120.851(    39)      0
      6      6  C        2   1.551567(     5)      1   89.325(    23)      3   19.525(    40)      0
      7      7  C        3   1.490681(     6)      1  121.826(    24)      2 -144.389(    41)      0
      8      8  H        2   1.092140(     7)      1  112.114(    25)      6 -112.516(    42)      0
      9      9  H        2   1.087770(     8)      1  117.443(    26)      6  120.935(    43)      0
     10     10  H        3   1.097487(     9)      1  109.318(    27)      7 -127.736(    44)      0
     11     11  C        7   1.328269(    10)      3  126.353(    28)      1   -5.996(    45)      0
     12     12  C        6   1.499027(    11)      2  117.440(    29)      1   97.835(    46)      0
     13     13  H        7   1.088003(    12)      3  115.236(    30)     11 -180.921(    47)      0
     14     14  H        6   1.093444(    13)      2  114.873(    31)     12  129.250(    48)      0
     15     15  C       12   1.326617(    14)      6  127.463(    32)      2   14.596(    49)      0
     16     16  H       11   1.082435(    15)      7  121.357(    33)      3 -181.742(    50)      0
     17     17  H       11   1.083861(    16)      7  121.922(    34)     16  182.894(    51)      0
     18     18  H       12   1.086692(    17)      6  114.427(    35)     15  177.914(    52)      0
     19     19  H       15   1.083136(    18)     12  122.908(    36)      6   -0.809(    53)      0
     20     20  H       15   1.081916(    19)     12  120.971(    37)     19  178.584(    54)      0
 ---------------------------------------------------------------------------------------------------
                         Z-Matrix orientation:                         
 ---------------------------------------------------------------------
 Center     Atomic      Atomic             Coordinates (Angstroms)
 Number     Number       Type             X           Y           Z
 ---------------------------------------------------------------------
      1          6           0        0.000000    0.000000    0.000000
      2          6           0        0.000000    0.000000    1.546907
      3          6           0        1.544133    0.000000    0.030722
      4          1           0       -0.391066    0.939587   -0.389763
      5          1           0       -0.494640   -0.828080   -0.515830
      6          6           0        1.462245    0.518523    1.528615
      7          6           0        2.350562    0.737487   -0.983139
      8          1           0       -0.052790   -1.010417    1.958051
      9          1           0       -0.744467    0.614564    2.048229
     10          1           0        1.906364   -1.034981    0.076341
     11          6           0        1.883098    1.362852   -2.057705
     12          6           0        1.674785    1.992264    1.701807
     13          1           0        3.421747    0.763343   -0.794339
     14          1           0        2.146001   -0.009852    2.198630
     15          6           0        0.797127    2.888965    2.132566
     16          1           0        2.541986    1.899055   -2.728540
     17          1           0        0.823509    1.401941   -2.282422
     18          1           0        2.680986    2.331417    1.470646
     19          1           0       -0.219454    2.633477    2.405461
     20          1           0        1.075245    3.927738    2.251495
 ---------------------------------------------------------------------
                    Distance matrix (angstroms):
                    1          2          3          4          5
     1  C    0.000000
     2  C    1.546907   0.000000
     3  C    1.544439   2.164062   0.000000
     4  H    1.089804   2.187795   2.191947   0.000000
     5  H    1.093830   2.277119   2.267384   1.775181   0.000000
     6  C    2.178002   1.551567   1.587217   2.700413   3.134086
     7  C    2.652469   3.531312   1.490681   2.812378   3.280938
     8  H    2.204018   1.092140   2.699205   3.070697   2.519636
     9  H    2.264323   1.087770   3.112188   2.484821   2.952631
    10  H    2.170538   2.620682   1.097487   3.065022   2.481590
    11  C    3.104444   4.289132   2.516702   2.851843   3.582066
    12  C    3.109689   2.607300   2.603595   3.122584   4.192691
    13  H    3.594721   4.215742   2.188344   3.838267   4.236541
    14  H    3.072359   2.242802   2.249926   3.746721   3.874374
    15  C    3.678229   3.053609   3.649916   3.402061   4.743320
    16  H    4.184857   5.324242   3.495089   3.872112   4.642676
    17  H    2.802330   4.160212   2.799174   2.295893   3.135499
    18  H    3.845255   3.553731   2.966702   3.851729   4.900317
    19  H    3.573458   2.778574   3.960408   3.272918   4.537846
    20  H    4.653225   4.132762   4.536388   4.249159   5.721925
                    6          7          8          9         10
     6  C    0.000000
     7  C    2.673193   0.000000
     8  H    2.194859   4.181133   0.000000
     9  H    2.269097   4.333994   1.768365   0.000000
    10  H    2.172491   2.112215   2.716564   3.692728   0.000000
    11  C    3.708329   1.328269   5.050383   4.931807   3.210030
    12  C    1.499027   3.039749   3.473654   2.805503   3.443832
    13  H    3.048885   1.088003   4.774336   5.045757   2.507676
    14  H    1.093444   3.274754   2.427692   2.960966   2.369056
    15  C    2.534983   4.092632   3.994747   2.748914   4.566818
    16  H    4.603811   2.105305   6.096066   5.938704   4.108520
    17  H    3.963889   2.112233   4.956711   4.672585   3.560186
    18  H    2.185240   2.944631   4.344991   3.874908   3.725152
    19  H    2.840775   4.656434   3.675040   2.116427   4.837508
    20  H    3.506433   4.718791   5.073850   3.785471   5.481846
                   11         12         13         14         15
    11  C    0.000000
    12  C    3.817523   0.000000
    13  H    2.079170   3.285250   0.000000
    14  H    4.479935   2.115974   3.344132   0.000000
    15  C    4.589851   1.326617   4.469192   3.197963   0.000000
    16  H    1.082435   4.515384   2.409347   5.298842   5.258784
    17  H    1.083861   4.116702   3.061542   4.880775   4.658762
    18  H    3.744864   1.086692   2.852673   2.509523   2.073143
    19  H    5.094612   2.120007   5.195620   3.553216   1.083136
    20  H    5.079416   2.099444   4.979616   4.080922   1.081916
                   16         17         18         19         20
    16  H    0.000000
    17  H    1.843721   0.000000
    18  H    4.223674   4.289484   0.000000
    19  H    5.875618   4.957893   3.062298   0.000000
    20  H    5.573834   5.196097   2.395072   1.837135   0.000000
 Symmetry turned off by external request.
 Stoichiometry    C8H12
 Framework group  C1[X(C8H12)]
 Deg. of freedom    54
 Full point group                 C1      NOp   1
 Rotational constants (GHZ):           2.8053497           1.6905549           1.3155028
 Standard basis: def2TZVP (5D, 7F)
 The following finite field(s) will be applied:
 An electric field of             -0.0026 -0.0084 -0.0047
   320 basis functions,   504 primitive gaussians,   360 cartesian basis functions
    30 alpha electrons       30 beta electrons
       nuclear repulsion energy       360.3627440461 Hartrees.
 NAtoms=   20 NActive=   20 NUniq=   20 SFac= 1.00D+00 NAtFMM=   60 NAOKFM=F Big=F
 Integral buffers will be    131072 words long.
 Raffenetti 2 integral format.
 Two-electron integral symmetry is turned off.
 One-electron integrals computed using PRISM.
   1 Symmetry operations used in ECPInt.
 ECPInt:  NShTT=    9316 NPrTT=   27240 LenC2=    9173 LenP2D=   21653.
 LDataN:  DoStor=T MaxTD1= 6 Len=  172
 NBasis=   320 RedAO= T EigKep=  3.53D-05  NBF=   320
 NBsUse=   320 1.00D-06 EigRej= -1.00D+00 NBFU=   320
 The nuclear repulsion energy is now       358.8492990197 hartrees.
 Initial guess from the checkpoint file:  "checkpoint.chk"
 B after Tr=    -0.000144   -0.001127   -0.000052
         Rot=    1.000000   -0.000184    0.000029   -0.000196 Ang=  -0.03 deg.
 Requested convergence on RMS density matrix=1.00D-08 within 128 cycles.
 Requested convergence on MAX density matrix=1.00D-06.
 Requested convergence on             energy=1.00D-06.
 No special actions if energy rises.
 SCF Done:  E(RB3LYP) =  -312.120250247     A.U. after    7 cycles
            NFock=  7  Conv=0.47D-08     -V/T= 2.0056
   1 Symmetry operations used in ECPInt.
 ECPInt:  NShTT=    9316 NPrTT=   27240 LenC2=    9173 LenP2D=   21653.
 LDataN:  DoStor=T MaxTD1= 7 Len=  274
 Calling FoFJK, ICntrl=      2127 FMM=F ISym2X=0 I1Cent= 0 IOpClX= 0 NMat=1 NMatS=1 NMatT=0.
 -------------------------------------------------------------------
 Center     Atomic                   Forces (Hartrees/Bohr)
 Number     Number              X              Y              Z
 -------------------------------------------------------------------
      1        6          -0.000113432   -0.000756294    0.000024970
      2        6           0.000089013    0.000640251    0.000011477
      3        6           0.000010414   -0.000010786   -0.000061795
      4        1          -0.000004898    0.000025677   -0.000001446
      5        1           0.000012832    0.000036539    0.000017033
      6        6          -0.000017966   -0.000027818   -0.000045840
      7        6           0.000006948    0.000043397    0.000065748
      8        1          -0.000006899   -0.000017798   -0.000002399
      9        1           0.000015685   -0.000034095   -0.000014098
     10        1          -0.000013867   -0.000016327    0.000007852
     11        6          -0.000003621   -0.000012445   -0.000028025
     12        6           0.000054019    0.000042524   -0.000005637
     13        1          -0.000005651    0.000015617    0.000007644
     14        1          -0.000005780    0.000003611   -0.000006453
     15        6           0.000009057    0.000018683   -0.000001937
     16        1           0.000001399   -0.000008233   -0.000001972
     17        1          -0.000000792    0.000000530    0.000006041
     18        1          -0.000017680    0.000038991   -0.000001643
     19        1           0.000029415    0.000004124    0.000006809
     20        1          -0.000038194    0.000013850    0.000023673
 -------------------------------------------------------------------
 Cartesian Forces:  Max     0.000756294 RMS     0.000131249
 -----------------------------------------------------------------------------------------------
                       Internal Coordinate Forces (Hartree/Bohr or radian)
  Cent   Atom   N1       Length/X         N2         Alpha/Y        N3         Beta/Z          J
 -----------------------------------------------------------------------------------------------
      1  C 
      2  C        1  -0.000036(     1)
      3  C        1  -0.000005(     2)      2  -0.000085(    20)
      4  H        1   0.000024(     3)      2  -0.000016(    21)      3   0.000010(    38)     0
      5  H        1  -0.000041(     4)      2   0.000006(    22)      3   0.000014(    39)     0
      6  C        2   0.000044(     5)      1  -0.000124(    23)      3   0.000323(    40)     0
      7  C        3  -0.000015(     6)      1   0.000016(    24)      2   0.000044(    41)     0
      8  H        2   0.000016(     7)      1  -0.000019(    25)      6  -0.000011(    42)     0
      9  H        2  -0.000036(     8)      1   0.000006(    26)      6   0.000030(    43)     0
     10  H        3   0.000011(     9)      1  -0.000038(    27)      7  -0.000015(    44)     0
     11  C        7   0.000011(    10)      3  -0.000011(    28)      1  -0.000084(    45)     0
     12  C        6   0.000124(    11)      2  -0.000054(    29)      1   0.000112(    46)     0
     13  H        7  -0.000004(    12)      3   0.000003(    30)     11  -0.000033(    47)     0
     14  H        6  -0.000009(    13)      2  -0.000001(    31)     12   0.000002(    48)     0
     15  C       12   0.000034(    14)      6  -0.000034(    32)      2   0.000088(    49)     0
     16  H       11  -0.000002(    15)      7  -0.000004(    33)      3   0.000021(    50)     0
     17  H       11  -0.000000(    16)      7  -0.000010(    34)     16   0.000006(    51)     0
     18  H       12  -0.000004(    17)      6   0.000084(    35)     15   0.000023(    52)     0
     19  H       15  -0.000027(    18)     12   0.000000(    36)      6   0.000009(    53)     0
     20  H       15   0.000006(    19)     12   0.000093(    37)     19  -0.000016(    54)     0
 -----------------------------------------------------------------------------------------------
 Internal  Forces:  Max     0.000322514 RMS     0.000061974

 GradGradGradGradGradGradGradGradGradGradGradGradGradGradGradGradGradGrad
 Berny optimization.
 Search for a local minimum.
 Step number   3 out of a maximum of   64
 All quantities printed in internal units (Hartrees-Bohrs-Radians)
 Update second derivatives using D2CorN and points    1    2    3
 DE= -1.97D-06 DEPred=-1.70D-06 R= 1.16D+00
 TightC=F SS=  1.41D+00  RLast= 8.11D-03 DXNew= 1.6818D-01 2.4338D-02
 Trust test= 1.16D+00 RLast= 8.11D-03 DXMaxT set to 1.00D-01
 ITU=  1  1  0
     Eigenvalues ---    0.02774   0.03677   0.04151   0.05769   0.08506
     Eigenvalues ---    0.10407   0.11427   0.11939   0.12918   0.13954
     Eigenvalues ---    0.16568   0.17100   0.18276   0.18410   0.18607
     Eigenvalues ---    0.19629   0.20548   0.20783   0.21372   0.23058
     Eigenvalues ---    0.23803   0.27494   0.28830   0.29780   0.30612
     Eigenvalues ---    0.32561   0.32642   0.33362   0.34032   0.34406
     Eigenvalues ---    0.34484   0.34637   0.34832   0.35035   0.35063
     Eigenvalues ---    0.35180   0.35551   0.35635   0.35700   0.35761
     Eigenvalues ---    0.40653   0.41909   0.42274   0.47608   0.48653
     Eigenvalues ---    0.52005   0.53693   0.55432   0.59954   0.60279
     Eigenvalues ---    0.66866   0.90006   1.26648   4.96745
 RFO step:  Lambda=-6.40124037D-07 EMin= 2.77432983D-02
 Quartic linear search produced a step of  0.08175.
 Variable       Old X    -DE/DX   Delta X   Delta X   Delta X     New X
                                 (Linear)    (Quad)   (Total)
    R2        2.92323  -0.00004  -0.00001  -0.00009  -0.00010   2.92313
    R3        2.91857  -0.00001  -0.00002  -0.00001  -0.00003   2.91853
    R4        2.05943   0.00002  -0.00000   0.00008   0.00008   2.05951
    R5        2.06704  -0.00004   0.00002  -0.00014  -0.00011   2.06693
    R6        2.93204   0.00004   0.00001   0.00010   0.00012   2.93215
    R7        2.81698  -0.00002  -0.00001  -0.00005  -0.00006   2.81691
    R8        2.06385   0.00002  -0.00001   0.00006   0.00005   2.06389
    R9        2.05559  -0.00004   0.00001  -0.00013  -0.00012   2.05547
   R10        2.07395   0.00001   0.00000   0.00004   0.00005   2.07400
   R11        2.51006   0.00001   0.00000   0.00002   0.00003   2.51009
   R12        2.83275   0.00012  -0.00003   0.00044   0.00042   2.83317
   R13        2.05603  -0.00000   0.00000  -0.00001  -0.00001   2.05602
   R14        2.06631  -0.00001  -0.00001  -0.00003  -0.00003   2.06628
   R15        2.50694   0.00003  -0.00001   0.00006   0.00005   2.50700
   R16        2.04551  -0.00000  -0.00000  -0.00001  -0.00001   2.04550
   R17        2.04820  -0.00000   0.00000  -0.00000   0.00000   2.04820
   R18        2.05355  -0.00000  -0.00000  -0.00001  -0.00001   2.05354
   R19        2.04683  -0.00003   0.00001  -0.00009  -0.00008   2.04675
   R20        2.04452   0.00001   0.00000   0.00002   0.00002   2.04455
    A3        1.55090  -0.00009   0.00000  -0.00006  -0.00005   1.55085
    A4        1.93654  -0.00002  -0.00007  -0.00008  -0.00015   1.93639
    A5        2.06188   0.00001   0.00006   0.00005   0.00011   2.06199
    A6        1.55901  -0.00012   0.00001  -0.00026  -0.00025   1.55876
    A7        2.12627   0.00002   0.00000   0.00005   0.00005   2.12632
    A8        1.95677  -0.00002  -0.00000  -0.00007  -0.00007   1.95670
    A9        2.04977   0.00001   0.00001   0.00006   0.00007   2.04984
   A10        1.90796  -0.00004  -0.00002   0.00009   0.00006   1.90803
   A11        2.20528  -0.00001  -0.00001  -0.00004  -0.00005   2.20523
   A12        2.04971  -0.00005  -0.00009   0.00025   0.00016   2.04987
   A13        2.01125   0.00000   0.00001   0.00003   0.00004   2.01129
   A14        2.00491  -0.00000   0.00006  -0.00013  -0.00007   2.00485
   A15        2.22464  -0.00003  -0.00007   0.00005  -0.00002   2.22462
   A16        2.11808  -0.00000  -0.00000  -0.00001  -0.00001   2.11807
   A17        2.12794  -0.00001  -0.00002  -0.00004  -0.00006   2.12788
   A18        1.99713   0.00008   0.00002   0.00020   0.00022   1.99735
   A19        2.14516   0.00000   0.00002  -0.00007  -0.00005   2.14511
   A20        2.11134   0.00009   0.00001   0.00025   0.00025   2.11160
    D4       -1.96520   0.00001   0.00009   0.00007   0.00016  -1.96504
    D5        2.10925   0.00001   0.00011   0.00009   0.00020   2.10945
    D6        0.34077   0.00032  -0.00002   0.00104   0.00101   0.34179
    D7       -2.52007   0.00004   0.00001  -0.00038  -0.00037  -2.52044
    D8       -1.96377  -0.00001   0.00006  -0.00002   0.00004  -1.96373
    D9        2.11072   0.00003   0.00001  -0.00001   0.00000   2.11072
   D10       -2.22941  -0.00001  -0.00006  -0.00064  -0.00069  -2.23010
   D11       -0.10464  -0.00008  -0.00007  -0.00159  -0.00166  -0.10630
   D12        1.70753   0.00011  -0.00000  -0.00064  -0.00064   1.70690
   D13       -3.15767  -0.00003  -0.00021   0.00006  -0.00015  -3.15782
   D14        2.25584   0.00000  -0.00003  -0.00001  -0.00003   2.25580
   D15        0.25475   0.00009   0.00015   0.00116   0.00130   0.25605
   D16       -3.17199   0.00002  -0.00034  -0.00022  -0.00056  -3.17255
   D17        3.19210   0.00001   0.00040   0.00059   0.00099   3.19309
   D18        3.10518   0.00002  -0.00014  -0.00070  -0.00084   3.10435
   D19       -0.01412   0.00001   0.00001  -0.00046  -0.00045  -0.01457
   D20        3.11687  -0.00002  -0.00010  -0.00037  -0.00047   3.11641
         Item               Value     Threshold  Converged?
 Maximum Force            0.000323     0.000450     YES
 RMS     Force            0.000062     0.000300     YES
 Maximum Displacement     0.001659     0.001800     YES
 RMS     Displacement     0.000420     0.001200     YES
 Predicted change in Energy=-3.119433D-07
 Optimization completed.
    -- Stationary point found.
                       ----------------------------
                       !   Optimized Parameters   !
                       ! (Angstroms and Degrees)  !
 ----------------------                            ----------------------
 !      Name          Value   Derivative information (Atomic Units)     !
 ------------------------------------------------------------------------
 !       R2          1.5469   -DE/DX =    0.0                           !
 !       R3          1.5444   -DE/DX =    0.0                           !
 !       R4          1.0898   -DE/DX =    0.0                           !
 !       R5          1.0938   -DE/DX =    0.0                           !
 !       R6          1.5516   -DE/DX =    0.0                           !
 !       R7          1.4907   -DE/DX =    0.0                           !
 !       R8          1.0921   -DE/DX =    0.0                           !
 !       R9          1.0878   -DE/DX =    0.0                           !
 !       R10         1.0975   -DE/DX =    0.0                           !
 !       R11         1.3283   -DE/DX =    0.0                           !
 !       R12         1.499    -DE/DX =    0.0001                        !
 !       R13         1.088    -DE/DX =    0.0                           !
 !       R14         1.0934   -DE/DX =    0.0                           !
 !       R15         1.3266   -DE/DX =    0.0                           !
 !       R16         1.0824   -DE/DX =    0.0                           !
 !       R17         1.0839   -DE/DX =    0.0                           !
 !       R18         1.0867   -DE/DX =    0.0                           !
 !       R19         1.0831   -DE/DX =    0.0                           !
 !       R20         1.0819   -DE/DX =    0.0                           !
 !       A3         88.8602   -DE/DX =   -0.0001                        !
 !       A4        110.9556   -DE/DX =    0.0                           !
 !       A5        118.137    -DE/DX =    0.0                           !
 !       A6         89.3245   -DE/DX =   -0.0001                        !
 !       A7        121.8262   -DE/DX =    0.0                           !
 !       A8        112.1144   -DE/DX =    0.0                           !
 !       A9        117.4433   -DE/DX =    0.0                           !
 !       A10       109.3183   -DE/DX =    0.0                           !
 !       A11       126.3532   -DE/DX =    0.0                           !
 !       A12       117.4398   -DE/DX =   -0.0001                        !
 !       A13       115.2363   -DE/DX =    0.0                           !
 !       A14       114.8732   -DE/DX =    0.0                           !
 !       A15       127.4626   -DE/DX =    0.0                           !
 !       A16       121.3572   -DE/DX =    0.0                           !
 !       A17       121.9219   -DE/DX =    0.0                           !
 !       A18       114.4273   -DE/DX =    0.0001                        !
 !       A19       122.9083   -DE/DX =    0.0                           !
 !       A20       120.9711   -DE/DX =    0.0001                        !
 !       D4       -112.5976   -DE/DX =    0.0                           !
 !       D5        120.8513   -DE/DX =    0.0                           !
 !       D6         19.5249   -DE/DX =    0.0003                        !
 !       D7       -144.3892   -DE/DX =    0.0                           !
 !       D8       -112.5156   -DE/DX =    0.0                           !
 !       D9        120.9351   -DE/DX =    0.0                           !
 !       D10      -127.7358   -DE/DX =    0.0                           !
 !       D11        -5.9957   -DE/DX =   -0.0001                        !
 !       D12        97.8345   -DE/DX =    0.0001                        !
 !       D13      -180.9214   -DE/DX =    0.0                           !
 !       D14       129.25     -DE/DX =    0.0                           !
 !       D15        14.5961   -DE/DX =    0.0001                        !
 !       D16      -181.7419   -DE/DX =    0.0                           !
 !       D17       182.8936   -DE/DX =    0.0                           !
 !       D18       177.9139   -DE/DX =    0.0                           !
 !       D19        -0.8091   -DE/DX =    0.0                           !
 !       D20       178.5838   -DE/DX =    0.0                           !
 ------------------------------------------------------------------------
 GradGradGradGradGradGradGradGradGradGradGradGradGradGradGradGradGradGrad

 ---------------------------------------------------------------------------------------------------
                            Z-MATRIX (ANGSTROMS AND DEGREES)
   CD    Cent   Atom    N1       Length/X        N2       Alpha/Y        N3        Beta/Z          J
 ---------------------------------------------------------------------------------------------------
      1      1  C 
      2      2  C        1   1.546907(     1)
      3      3  C        1   1.544439(     2)      2   88.860(    20)
      4      4  H        1   1.089804(     3)      2  110.956(    21)      3 -112.598(    38)      0
      5      5  H        1   1.093830(     4)      2  118.137(    22)      3  120.851(    39)      0
      6      6  C        2   1.551567(     5)      1   89.325(    23)      3   19.525(    40)      0
      7      7  C        3   1.490681(     6)      1  121.826(    24)      2 -144.389(    41)      0
      8      8  H        2   1.092140(     7)      1  112.114(    25)      6 -112.516(    42)      0
      9      9  H        2   1.087770(     8)      1  117.443(    26)      6  120.935(    43)      0
     10     10  H        3   1.097487(     9)      1  109.318(    27)      7 -127.736(    44)      0
     11     11  C        7   1.328269(    10)      3  126.353(    28)      1   -5.996(    45)      0
     12     12  C        6   1.499027(    11)      2  117.440(    29)      1   97.835(    46)      0
     13     13  H        7   1.088003(    12)      3  115.236(    30)     11 -180.921(    47)      0
     14     14  H        6   1.093444(    13)      2  114.873(    31)     12  129.250(    48)      0
     15     15  C       12   1.326617(    14)      6  127.463(    32)      2   14.596(    49)      0
     16     16  H       11   1.082435(    15)      7  121.357(    33)      3 -181.742(    50)      0
     17     17  H       11   1.083861(    16)      7  121.922(    34)     16  182.894(    51)      0
     18     18  H       12   1.086692(    17)      6  114.427(    35)     15  177.914(    52)      0
     19     19  H       15   1.083136(    18)     12  122.908(    36)      6   -0.809(    53)      0
     20     20  H       15   1.081916(    19)     12  120.971(    37)     19  178.584(    54)      0
 ---------------------------------------------------------------------------------------------------
                         Z-Matrix orientation:                         
 ---------------------------------------------------------------------
 Center     Atomic      Atomic             Coordinates (Angstroms)
 Number     Number       Type             X           Y           Z
 ---------------------------------------------------------------------
      1          6           0        0.000000    0.000000    0.000000
      2          6           0        0.000000    0.000000    1.546907
      3          6           0        1.544133    0.000000    0.030722
      4          1           0       -0.391066    0.939587   -0.389763
      5          1           0       -0.494640   -0.828080   -0.515830
      6          6           0        1.462245    0.518523    1.528615
      7          6           0        2.350562    0.737487   -0.983139
      8          1           0       -0.052790   -1.010417    1.958051
      9          1           0       -0.744467    0.614564    2.048229
     10          1           0        1.906364   -1.034981    0.076341
     11          6           0        1.883098    1.362852   -2.057705
     12          6           0        1.674785    1.992264    1.701807
     13          1           0        3.421747    0.763343   -0.794339
     14          1           0        2.146001   -0.009852    2.198630
     15          6           0        0.797127    2.888965    2.132566
     16          1           0        2.541986    1.899055   -2.728540
     17          1           0        0.823509    1.401941   -2.282422
     18          1           0        2.680986    2.331417    1.470646
     19          1           0       -0.219454    2.633477    2.405461
     20          1           0        1.075245    3.927738    2.251495
 ---------------------------------------------------------------------
                    Distance matrix (angstroms):
                    1          2          3          4          5
     1  C    0.000000
     2  C    1.546907   0.000000
     3  C    1.544439   2.164062   0.000000
     4  H    1.089804   2.187795   2.191947   0.000000
     5  H    1.093830   2.277119   2.267384   1.775181   0.000000
     6  C    2.178002   1.551567   1.587217   2.700413   3.134086
     7  C    2.652469   3.531312   1.490681   2.812378   3.280938
     8  H    2.204018   1.092140   2.699205   3.070697   2.519636
     9  H    2.264323   1.087770   3.112188   2.484821   2.952631
    10  H    2.170538   2.620682   1.097487   3.065022   2.481590
    11  C    3.104444   4.289132   2.516702   2.851843   3.582066
    12  C    3.109689   2.607300   2.603595   3.122584   4.192691
    13  H    3.594721   4.215742   2.188344   3.838267   4.236541
    14  H    3.072359   2.242802   2.249926   3.746721   3.874374
    15  C    3.678229   3.053609   3.649916   3.402061   4.743320
    16  H    4.184857   5.324242   3.495089   3.872112   4.642676
    17  H    2.802330   4.160212   2.799174   2.295893   3.135499
    18  H    3.845255   3.553731   2.966702   3.851729   4.900317
    19  H    3.573458   2.778574   3.960408   3.272918   4.537846
    20  H    4.653225   4.132762   4.536388   4.249159   5.721925
                    6          7          8          9         10
     6  C    0.000000
     7  C    2.673193   0.000000
     8  H    2.194859   4.181133   0.000000
     9  H    2.269097   4.333994   1.768365   0.000000
    10  H    2.172491   2.112215   2.716564   3.692728   0.000000
    11  C    3.708329   1.328269   5.050383   4.931807   3.210030
    12  C    1.499027   3.039749   3.473654   2.805503   3.443832
    13  H    3.048885   1.088003   4.774336   5.045757   2.507676
    14  H    1.093444   3.274754   2.427692   2.960966   2.369056
    15  C    2.534983   4.092632   3.994747   2.748914   4.566818
    16  H    4.603811   2.105305   6.096066   5.938704   4.108520
    17  H    3.963889   2.112233   4.956711   4.672585   3.560186
    18  H    2.185240   2.944631   4.344991   3.874908   3.725152
    19  H    2.840775   4.656434   3.675040   2.116427   4.837508
    20  H    3.506433   4.718791   5.073850   3.785471   5.481846
                   11         12         13         14         15
    11  C    0.000000
    12  C    3.817523   0.000000
    13  H    2.079170   3.285250   0.000000
    14  H    4.479935   2.115974   3.344132   0.000000
    15  C    4.589851   1.326617   4.469192   3.197963   0.000000
    16  H    1.082435   4.515384   2.409347   5.298842   5.258784
    17  H    1.083861   4.116702   3.061542   4.880775   4.658762
    18  H    3.744864   1.086692   2.852673   2.509523   2.073143
    19  H    5.094612   2.120007   5.195620   3.553216   1.083136
    20  H    5.079416   2.099444   4.979616   4.080922   1.081916
                   16         17         18         19         20
    16  H    0.000000
    17  H    1.843721   0.000000
    18  H    4.223674   4.289484   0.000000
    19  H    5.875618   4.957893   3.062298   0.000000
    20  H    5.573834   5.196097   2.395072   1.837135   0.000000
[...]
 .27483868,0.60996673,-0.00090116,0.00560984,-0.00294603,-0.04578293,-0
 .00666746,0.00725579,-0.00058217,0.00008837,-0.00039132,0.00014907,-0.
 00002776,-0.00172629,0.00060748,-0.00007068,0.00065763,-0.00172223,-0.
 02956124,0.01004805,-0.00005311,0.00040472,0.00004857,0.04935592,0.000
 94786,0.00251556,-0.00125433,-0.00769289,-0.26987753,0.08802650,-0.000
 00557,-0.00026748,-0.00038045,-0.00015692,0.00125147,-0.00049538,0.000
 03671,0.00133186,0.00078369,0.00070542,-0.01048612,0.00270545,-0.00017
 744,0.00020964,0.00021911,0.01019148,0.29081784,-0.00018286,0.03085456
 ,-0.01249327,0.00704586,0.08783228,-0.08074253,-0.00114942,-0.00016400
 ,-0.00007772,0.00186270,-0.00032766,-0.00580237,-0.00098656,-0.0005349
 1,0.00253403,-0.00011312,-0.00589890,0.00145056,0.00038203,-0.00028307
 ,-0.00010629,-0.00528156,-0.09678105,0.08787617,0.00355628,-0.00564732
 ,-0.00083925,-0.17354406,0.10566795,0.08032086,-0.00315651,-0.00185799
 ,0.00207853,0.00072395,-0.00009659,0.00096580,-0.00011241,-0.00030160,
 -0.00084055,-0.01348754,0.01706347,0.01014696,0.00074618,0.00131063,0.
 00049322,0.00195041,-0.00093182,-0.00140405,0.18236122,-0.00242718,0.0
 0004550,0.00234329,0.10679883,-0.13808972,-0.07153687,-0.00147969,-0.0
 0019540,0.00157877,-0.00005108,0.00100065,0.00018091,0.00016110,0.0000
 8575,-0.00038094,-0.00563444,0.00904229,0.00565995,-0.00035108,0.00055
 809,0.00049977,0.02011367,-0.01721876,-0.01332634,-0.11552396,0.148338
 74,0.01858593,-0.01686004,-0.00861542,0.08013469,-0.07048359,-0.102394
 04,0.00177721,0.00136646,-0.00431819,-0.00068537,0.00000211,0.00256436
 ,0.00079269,-0.00029686,-0.00235846,-0.00100747,0.00592979,-0.00027537
 ,0.00136300,-0.00066358,0.00059318,-0.00899528,0.00709142,0.00642020,-
 0.09142591,0.07567211,0.10772006,-0.01371149,0.03066101,-0.00278911,0.
 00067142,-0.00028544,-0.00125939,-0.07380228,0.07358940,0.00080800,-0.
 00608245,-0.00001741,0.00159285,0.00200393,-0.00049711,-0.00086566,0.0
 0170569,-0.00424483,-0.00158229,0.00722737,-0.01723599,0.00133849,-0.0
 0011611,-0.00020627,0.00064719,0.00003060,-0.00029363,0.00005511,0.081
 38483,-0.00103161,0.00122501,0.00040591,-0.00062448,0.00005894,0.00007
 832,0.07634477,-0.26168348,0.01209711,-0.00053423,0.00114726,-0.000056
 00,0.00068010,0.00126715,0.00018944,0.00369910,-0.01335220,-0.00179405
 ,0.00591793,-0.01711767,0.00430094,0.00024278,0.00029835,-0.00026780,0
 .00013815,0.00006285,-0.00026605,-0.08153404,0.28586206,-0.00373409,0.
 00621149,-0.00057603,-0.00070501,0.00007124,-0.00025114,-0.00120375,0.
 01347804,-0.03731586,-0.00151822,0.00012893,-0.00025381,0.00068932,0.0
 0000792,0.00047874,0.00812386,-0.02978222,-0.00539066,-0.00662226,0.02
 595400,-0.00542579,0.00053882,0.00016157,-0.00003690,-0.00026675,0.000
 16519,-0.00000723,0.00023696,-0.01388209,0.05211217,0.00158222,-0.0002
 0416,0.00015222,-0.00014491,0.00020753,0.00049368,0.01340044,-0.006101
 96,0.01292560,-0.00023282,0.00016127,0.00058892,0.00014557,-0.00041097
 ,-0.00009829,-0.00104115,-0.00190906,0.00266683,-0.16942884,0.06545157
 ,-0.12653609,-0.00003019,0.00005558,-0.00009564,-0.00018166,0.00003624
 ,-0.00003466,-0.00108747,-0.00285392,0.00266534,0.65235714,0.00086916,
 -0.00003557,-0.00006210,0.00017663,0.00006001,0.00032768,0.00215017,-0
 .00403410,0.02324794,-0.00025039,-0.00003300,-0.00029414,-0.00016027,0
 .00028313,-0.00013658,0.00001467,-0.00294119,-0.00356164,0.07062688,-0
 .16265667,0.19330585,0.00000157,0.00008693,0.00007244,-0.00032742,-0.0
 0012206,-0.00001646,-0.00062573,-0.00043213,0.00015880,0.01115624,0.31
 541657,-0.00101791,-0.00131817,0.00003031,-0.00038814,0.00025181,-0.00
 029392,-0.00415878,0.01659187,-0.02244077,0.00038592,0.00048856,-0.000
 08691,0.00041110,0.00010289,0.00021323,0.00009452,0.00158120,0.0024225
 3,-0.13206195,0.18917788,-0.37629473,-0.00004407,-0.00002047,-0.000159
 70,0.00037990,0.00006126,0.00007594,0.00164902,0.00059782,-0.00062377,
 0.08266536,-0.32097111,0.61313044,-0.00143608,-0.00083408,0.00033530,-
 0.00281865,-0.03339640,-0.00281985,-0.00078058,0.01091677,0.00176476,-
 0.00007150,-0.00012598,-0.00052887,0.00014207,0.00034039,-0.00043320,-
 0.09441513,-0.02206524,0.00042135,0.00216590,0.00048461,-0.00023706,-0
 .00527401,-0.00248788,-0.00127238,0.00220165,0.00115158,0.00089063,0.0
 0005597,0.00109903,0.00288980,-0.00047762,-0.00027483,0.00023222,0.696
 91467,0.00066629,0.00038845,-0.00020379,-0.01009480,-0.00771704,0.0013
 7380,0.00012942,-0.01343415,-0.01477421,0.00013845,-0.00029416,0.00034
 812,0.00086195,0.00021055,0.00054581,-0.01888538,-0.19746177,-0.004562
 47,0.00092725,0.00053806,0.00037054,0.00082994,0.00053312,-0.00094424,
 0.00212532,-0.00064113,-0.00080953,-0.00045768,0.00088742,0.00044588,-
 0.00047929,-0.00031699,0.00091500,-0.10535776,0.63603492,-0.00005676,-
 0.00001452,-0.00101205,-0.00034697,0.00757222,-0.00041197,-0.00142991,
 -0.03040086,-0.00233622,-0.00013772,-0.00024556,0.00023578,-0.00018613
 ,0.00013858,0.00017819,0.00096249,-0.01186641,-0.07408072,0.00003510,-
 0.00102360,0.00120613,0.00224931,0.00058183,0.00007265,-0.00026733,-0.
 00064082,0.00055219,-0.00088357,-0.00309751,-0.00490671,-0.00000707,-0
 .00057699,-0.00013248,-0.18107872,0.11946535,0.22781997,0.00171025,-0.
 00218302,0.00134164,-0.00041604,0.00029772,0.00021175,-0.01590884,0.00
 006977,-0.00374873,0.00027773,0.00009205,-0.00023974,-0.00058554,-0.00
 004604,0.00019660,0.00005187,-0.00003274,0.00017945,-0.31271548,-0.006
 85498,-0.04616129,0.00005690,-0.00001730,0.00007725,-0.00004593,-0.000
 03785,0.00028357,0.00049153,-0.00071631,0.00017082,-0.01021775,-0.0010
 2210,-0.00186137,-0.00038917,-0.00042749,0.00008559,0.33485247,0.00052
 002,-0.00023183,0.00266573,-0.00078136,0.00024382,0.00036360,-0.016129
 16,0.00197503,-0.00331623,-0.00007870,0.00011731,0.00000090,0.00000563
 ,-0.00014379,-0.00015762,-0.00047368,0.00036087,0.00084868,-0.01098381
 ,-0.04627769,0.00515690,-0.00002723,-0.00004693,0.00005356,0.00003534,
 -0.00004361,0.00033592,0.00079952,0.00059966,-0.00087478,0.01587352,0.
 00524752,0.00544105,0.00019486,0.00005395,0.00008529,0.00957737,0.0362
 5761,0.00085783,0.00323126,-0.00160605,0.00017824,-0.00003460,0.000305
 64,0.02232498,0.00068483,0.00593026,-0.00024576,-0.00014670,0.00014378
 ,0.00080517,0.00006621,-0.00028316,-0.00086328,-0.00072524,0.00058622,
 -0.04249171,0.00561899,-0.05960415,-0.00005378,-0.00002156,-0.00002582
 ,-0.00011259,-0.00004836,-0.00024436,-0.00059357,0.00021964,0.00056954
 ,-0.02925713,0.00201033,-0.00219542,-0.00009948,-0.00001072,-0.0001384
 5,0.05066594,-0.01361085,0.05890570,-0.00197934,-0.00238121,-0.0009700
 4,-0.01414728,0.01388790,-0.01496031,0.00279012,-0.00422949,0.00426258
 ,0.00014061,0.00014456,0.00000277,-0.00010684,0.00006174,-0.00132662,-
 0.14821271,0.07534000,-0.09464618,0.00051486,0.00045762,0.00036942,0.0
 0200037,0.00015075,0.00066680,-0.00247447,-0.00077787,-0.00096610,0.00
 098332,-0.00089301,-0.00083352,-0.00018632,-0.00016109,0.00010657,0.00
 374059,0.00075449,0.00288813,-0.00004044,0.00007624,-0.00004485,0.1555
 0616,-0.00174625,-0.00031087,-0.00186205,-0.00717257,0.00364361,-0.006
 34733,-0.00560939,0.00288330,-0.00709592,-0.00027096,0.00001587,-0.000
 35519,-0.00058121,-0.00022119,-0.00065585,0.07917087,-0.10589245,0.081
 61410,-0.00048685,-0.00015915,-0.00008272,0.00016239,0.00133451,0.0000
 9339,-0.00062370,-0.00018531,-0.00033542,-0.00001514,0.00143093,-0.000
 23895,0.00008579,0.00015942,-0.00013550,0.02311616,-0.02296078,0.01772
 778,0.00007292,-0.00003396,0.00008272,-0.08231128,0.12198543,-0.000816
 39,-0.00257438,-0.00243623,0.00310932,-0.00487684,0.00310705,-0.015285
 31,0.01277480,-0.01718928,0.00004619,0.00016562,0.00014431,-0.00135792
 ,-0.00003113,-0.00017610,-0.09441753,0.07955520,-0.13912037,-0.0019725
 0,-0.00189108,-0.00131731,-0.00091533,-0.00061317,0.00082096,0.0011241
 1,-0.00003667,-0.00004929,0.00068825,0.00054707,0.00225715,0.00062744,
 0.00057655,-0.00051631,0.00273209,-0.00313936,0.00465889,0.00038575,0.
 00008754,-0.00020466,0.10614848,-0.08091013,0.15025763,0.00012825,0.00
 033014,-0.00080241,0.00086970,0.00123122,0.00027734,0.00018903,-0.0034
 3579,-0.00271632,0.00024007,-0.00033939,0.00019775,0.00020296,-0.00015
 674,0.00015282,0.00946061,0.00339826,0.00033470,-0.00077347,-0.0002178
 0,-0.00007716,-0.00011175,-0.00009093,-0.00005434,-0.00024301,-0.00131
 412,-0.00004601,0.00003528,-0.00040232,-0.00046624,0.00021380,0.000001
 46,-0.00004095,-0.30476377,0.18855389,0.11192946,0.00024263,-0.0000847
 3,-0.00002268,0.00109716,-0.00312070,0.00003864,0.68408425,0.00055514,
 -0.00024438,0.00009058,0.00158897,0.00046015,0.00002511,0.00046218,-0.
 00246592,0.00269101,-0.00035102,-0.00000088,-0.00033722,-0.00030221,0.
 00009377,-0.00017105,0.02040613,-0.02759177,-0.01290784,-0.00068143,-0
 .00037911,0.00089891,0.00031433,0.00000685,-0.00019004,-0.00006130,-0.
 00071364,-0.00026947,-0.00013570,-0.00037893,-0.00142769,0.00018617,0.
 00070287,-0.00046635,0.19505428,-0.30664032,-0.10692769,0.00024961,-0.
 00005934,-0.00014007,-0.00069731,-0.00262983,-0.00032118,-0.06631832,0
 .72324209,-0.00016738,0.00029160,-0.00004242,0.00011268,-0.00050747,-0
 .00001419,0.00004559,0.00017696,-0.00064378,-0.00003863,-0.00014988,0.
 00006367,0.00011669,-0.00005850,0.00001105,0.00205605,-0.00475899,0.00
 538005,0.00008057,-0.00010461,-0.00020046,0.00026455,-0.00000871,-0.00
 003445,0.00003460,0.00026942,-0.00028155,0.00006429,0.00002375,0.00010
 959,-0.00003226,-0.00014799,0.00010624,0.11353861,-0.10661750,-0.10426
 386,-0.00002131,-0.00000663,-0.00000663,-0.00044448,0.00057797,-0.0002
 0822,-0.18816488,0.13594924,0.19546661,0.00003181,0.00029824,0.0002234
 8,0.00015426,-0.00031225,-0.00011297,-0.00087462,-0.00059684,-0.002551
 17,0.00039559,-0.00030809,-0.00013279,0.00006778,0.00002329,-0.0000017
 6,0.00017287,0.00035612,-0.00007135,0.01011562,0.00742671,-0.01016877,
 0.00004658,0.00001030,0.00013485,0.00005931,0.00002803,-0.00001594,0.0
 0007191,0.00007318,0.00013557,-0.16546639,-0.08881590,0.10826915,0.000
 03227,0.00009900,0.00004083,0.00125854,0.00090359,0.00074418,0.0000426
 0,-0.00000724,-0.00007378,-0.00000057,-0.00004122,0.00001657,0.1669896
 2,0.00002674,0.00027666,-0.00041722,-0.00004197,0.00045562,0.00042951,
 0.00121563,0.00928074,0.00666708,-0.00012822,0.00003849,0.00003015,-0.
 00005583,-0.00006082,-0.00007315,-0.00072831,-0.00186486,0.00073963,-0
 .01023070,-0.00426894,0.00969116,-0.00000683,-0.00007084,-0.00004912,-
 0.00019446,-0.00009818,-0.00000234,0.00077740,0.00068576,-0.00126414,-
 0.08757387,-0.10904797,0.09589357,-0.00005952,-0.00034293,-0.00017282,
 0.00097970,-0.00508887,-0.00400969,-0.00014875,0.00004570,0.00040372,0
 .00003534,0.00007829,-0.00002512,0.09436929,0.10708150,-0.00042515,0.0
 0018650,0.00013370,0.00009751,-0.00002185,0.00015624,-0.00361720,0.006
 64760,0.00255547,0.00009848,-0.00021937,0.00008043,0.00008230,0.000046
 02,-0.00004505,-0.00036788,-0.00032423,0.00042746,0.01770118,0.0137102
 9,-0.01401446,-0.00003932,-0.00003608,0.00002962,-0.00000962,-0.000044
 16,-0.00003367,0.00085171,0.00109838,-0.00157508,0.10327871,0.09350979
 ,-0.15294484,0.00005240,-0.00004824,-0.00006878,0.00056362,-0.00424055
 ,-0.00156347,-0.00001579,-0.00003876,0.00003924,0.00000122,-0.00009110
 ,-0.00000400,-0.11332154,-0.10687351,0.16118340,0.00010434,0.00003374,
 0.00051639,0.00043022,-0.00021758,0.00007702,-0.00053925,-0.00034512,0
 .00200823,-0.00006913,-0.00062008,0.00071828,0.00006857,0.00018290,-0.
 00005840,-0.00008276,-0.00002947,0.00008264,-0.00998625,0.00057574,-0.
 00342266,0.00003644,0.00001902,0.00009046,0.00000165,0.00000423,-0.000
 08737,0.00004716,0.00017126,-0.00025549,-0.31925184,0.00613240,-0.0546
 0034,-0.00006554,0.00003558,0.00002565,0.00095102,0.00050397,-0.001923
 46,0.00000349,-0.00003855,0.00001415,0.00007835,-0.00005189,0.00002138
 ,-0.01311418,0.00172731,-0.00492987,0.34136022,-0.00032647,-0.00055027
 ,0.00002531,0.00002421,-0.00025601,-0.00017091,0.00130198,-0.00495107,
 -0.00417561,-0.00016887,0.00026818,0.00017750,-0.00028357,-0.00015595,
 0.00013993,0.00030901,0.00101582,-0.00062575,0.01530223,0.00512424,0.0
 0373371,-0.00004426,0.00001656,-0.00003077,0.00007479,0.00005897,-0.00
 008268,-0.00029927,-0.00050115,0.00082399,0.00608353,-0.04256414,0.011
 95582,0.00007951,0.00018612,0.00020976,-0.00032922,0.00708910,0.007234
 79,0.00005641,-0.00005515,-0.00018998,0.00000650,-0.00012279,0.0000506
 9,-0.01350213,0.00287181,-0.00323594,-0.00812533,0.03258642,0.00017038
 ,0.00064408,0.00001093,-0.00012162,-0.00056848,-0.00020611,-0.00026876
 ,-0.00434832,-0.00141651,0.00109446,-0.00002581,-0.00087662,0.00002196
 ,-0.00020443,0.00008554,0.00004964,0.00062803,-0.00029078,-0.02752020,
 0.00128948,-0.00073333,0.00003693,-0.00001406,0.00021632,0.00006784,0.
 00006307,0.00001978,-0.00004689,-0.00050221,0.00067714,-0.05003697,0.0
 1229181,-0.06018723,-0.00003167,0.00010467,0.00018647,-0.00219491,0.00
 741328,-0.00026098,0.00009116,-0.00002099,-0.00004478,0.00008291,-0.00
 007354,0.00005050,0.01687809,-0.00090110,0.00573717,0.06174158,-0.0158
 1339,0.05705124,0.00010270,0.00012743,0.00009560,0.00146630,-0.0002268
 4,0.00075648,0.00020463,-0.00022073,0.00026087,-0.00002733,-0.00001080
 ,0.00003374,0.00000392,-0.00001087,-0.00001956,-0.00234493,-0.00101493
 ,0.00072736,-0.00031659,-0.00016319,0.00020295,-0.00027682,-0.00009061
 ,-0.00016931,0.00014748,0.00019892,0.00001251,0.00003904,-0.00001549,-
 0.00014823,0.00004694,0.00047214,-0.00004496,-0.28422537,-0.07743799,0
 .05629082,0.00034643,0.00005807,0.00019997,0.00039805,-0.00091984,-0.0
 0000670,-0.01999481,-0.00715143,0.00648493,-0.00000303,0.00005346,0.00
 000495,0.00001573,-0.00012250,-0.00003209,0.30393835,0.00010423,0.0002
 0011,0.00033975,0.00185750,-0.00519279,0.00006659,-0.00008628,0.001189
 22,0.00018651,-0.00000396,0.00000727,-0.00014412,0.00007477,0.00001408
 ,-0.00019697,-0.03002750,-0.00999781,0.00505725,-0.00025853,-0.0001515
 3,-0.00024898,-0.00149904,-0.00070118,-0.00031884,0.00007802,0.0002326
 6,0.00014647,0.00007857,-0.00000811,0.00007026,0.00024841,0.00024065,-
 0.00015433,-0.08169503,-0.08226892,0.01673632,0.00037049,-0.00001734,-
 0.00039547,0.00069160,0.00095663,0.00047913,0.02309260,0.00879351,-0.0
 0646710,-0.00000459,0.00004372,-0.00000761,0.00004731,-0.00008010,0.00
 004579,0.08380107,0.08776023,0.00020259,0.00023099,0.00027200,-0.00032
 799,-0.00136413,0.00114820,0.00002749,0.00118806,0.00100567,-0.0000101
 1,-0.00009049,-0.00002839,0.00003198,-0.00000045,0.00013069,-0.0029610
 7,-0.00185912,0.00202399,0.00000550,-0.00032303,-0.00010434,-0.0004873
 6,-0.00022136,-0.00005640,0.00004084,-0.00004964,0.00011447,0.00008351
 ,0.00012104,0.00004916,0.00002812,0.00018634,-0.00006827,0.05527175,0.
 01552335,-0.05347914,0.00010855,-0.00021605,-0.00032737,0.00010613,-0.
 00047634,0.00025439,0.01215367,0.00224166,0.00323308,0.00001318,-0.000
 05718,-0.00007437,0.00001087,0.00000696,0.00003180,-0.06606075,-0.0133
 4860,0.04288274,0.00011655,-0.00007524,0.00015789,0.00015865,-0.000684
 98,-0.00036738,-0.00009506,-0.00030396,-0.00010077,-0.00003899,0.00009
 311,0.00005688,0.00002840,-0.00003563,-0.00004103,-0.00076456,-0.00188
 160,-0.00249818,0.00002369,-0.00001730,0.00012838,0.00040034,-0.000123
 19,-0.00008306,0.00086332,-0.00071209,-0.00040834,0.00000289,0.0000109
 2,-0.00007384,0.00000676,0.00010918,-0.00001198,-0.01809862,-0.0059702
 5,0.00644221,0.00010194,-0.00002003,-0.00007414,-0.00009180,0.00046985
 ,0.00010811,-0.29558009,-0.06426582,0.06927256,0.00000854,-0.00000315,
 -0.00001295,0.00001570,-0.00002688,0.00001228,-0.00011883,0.00248898,0
 .00420516,0.31748463,-0.00006845,0.00013761,0.00003987,0.00030628,-0.0
 0138891,-0.00056395,-0.00008763,0.00035767,0.00010465,0.00000839,0.000
 03388,0.00001617,-0.00002426,0.00002939,0.00013173,0.00036210,0.000693
 10,0.00145507,0.00010214,0.00013057,-0.00010157,-0.00002429,0.00030659
 ,0.00021356,-0.00091606,-0.00220059,-0.00049601,-0.00000985,0.00007283
 ,0.00010014,-0.00002788,-0.00009109,0.00005657,0.02016718,0.01005773,-
 0.00558419,-0.00006891,0.00000319,0.00001174,-0.00009946,-0.00007367,-
 0.00005024,-0.06740462,-0.07435665,0.01391162,0.00000173,-0.00002430,-
 0.00000588,-0.00000167,0.00003308,-0.00000115,0.00221974,-0.00184122,-
 0.00310949,0.07087199,0.07044355,0.00009856,-0.00011034,-0.00008442,0.
 00037096,0.00002311,-0.00057720,0.00014548,-0.00100065,0.00012112,-0.0
 0007655,-0.00004328,-0.00027596,-0.00003771,0.00009566,-0.00001363,-0.
 00229765,0.00159737,-0.00643247,0.00008267,-0.00011833,0.00027455,-0.0
 0014258,0.00018449,0.00006668,-0.00028805,-0.00033150,0.00059108,-0.00
 008698,-0.00017460,-0.00031434,-0.00005791,0.00013256,0.00002754,0.011
 04902,0.00314809,0.00344934,-0.00000767,-0.00004220,-0.00001745,-0.000
 29844,0.00112694,0.00024211,0.06972458,0.01311645,-0.05658895,-0.00001
 792,0.00001500,0.00001557,-0.00001791,-0.00002086,-0.00004236,0.003785
 41,-0.00331068,0.00993617,-0.07914611,-0.01319001,0.04596321,-0.000030
 82,-0.00011851,0.00007899,-0.00055694,-0.00033599,0.00020797,-0.000153
 45,0.00120801,-0.00014770,0.00001420,0.00001590,0.00006852,0.00005599,
 -0.00002853,-0.00004247,-0.00141528,0.00079244,0.00454321,0.00014207,0
 .00012603,-0.00018616,0.00024698,-0.00013630,-0.00011482,0.00060356,0.
 00011037,-0.00022289,0.00004886,0.00022820,0.00037689,-0.00000589,-0.0
 0007277,0.00003671,0.00756294,0.02398904,0.00344456,-0.00002212,0.0000
 3056,0.00000610,0.00002186,-0.00017428,-0.00017706,-0.07537462,-0.0787
 5914,-0.00324014,0.00001149,-0.00001327,0.00000726,-0.00000395,-0.0000
 0967,0.00000588,0.00059813,0.00064137,-0.00244207,-0.00442345,-0.02530
 646,-0.00278118,0.07268044,0.00009485,0.00000657,0.00002639,0.00031177
 ,0.00039933,0.00002386,0.00017108,-0.00097395,0.00007128,-0.00002978,0
 .00000325,-0.00001367,-0.00002009,-0.00000572,-0.00001636,0.00124619,0
 .00111953,-0.00299257,-0.00007117,-0.00007999,0.00013775,-0.00003030,-
 0.00004046,-0.00000303,-0.00001143,0.00008290,0.00003776,-0.00004781,-
 0.00012456,-0.00030759,0.00001528,0.00007779,-0.00004936,-0.00630765,-
 0.01681216,-0.00196615,0.00002634,-0.00000470,-0.00001725,0.00007816,0
 .00006694,0.00004453,-0.07376395,-0.31779398,-0.03239875,-0.00000122,0
 .00000942,-0.00001131,-0.00000375,-0.00001367,-0.00000674,0.00045441,0
 .00082091,0.00161747,0.00007609,-0.00232276,-0.00109721,0.07781300,0.3
 3558531,-0.00013502,-0.00002643,0.00008695,0.00003614,0.00007964,0.000
 23642,-0.00007876,0.00196507,0.00009507,0.00005981,0.00000986,0.000012
 85,-0.00000980,-0.00002516,-0.00001976,0.00502774,-0.00241752,0.011083
 35,-0.00007034,0.00017817,-0.00031321,-0.00007675,0.00009257,0.0000482
 5,-0.00019856,-0.00009844,-0.00007367,0.00009209,0.00036091,0.00042383
 ,0.00006379,-0.00005307,-0.00006187,-0.00267670,-0.01113056,0.00247078
 ,-0.00003551,0.00001249,0.00003683,-0.00013568,-0.00266774,-0.00051916
 ,-0.00250211,-0.03168972,-0.04213227,0.00001209,-0.00002442,-0.0000345
 6,-0.00001115,-0.00001257,-0.00000822,-0.00237400,0.00146461,-0.006944
 07,0.00243432,0.00706136,0.00365939,0.00057841,0.03692095,0.03195308\\
 0.00011347,0.00075629,-0.00002500,-0.00008902,-0.00064032,-0.00001152,
 -0.00001046,0.00001070,0.00006183,0.00000490,-0.00002569,0.00000146,-0
 .00001282,-0.00003650,-0.00001700,0.00001800,0.00002780,0.00004579,-0.
 00000699,-0.00004342,-0.00006571,0.00000691,0.00001783,0.00000239,-0.0
 0001571,0.00003412,0.00001413,0.00001385,0.00001639,-0.00000785,0.0000
 0358,0.00001248,0.00002797,-0.00005397,-0.00004262,0.00000563,0.000005
 71,-0.00001561,-0.00000765,0.00000577,-0.00000359,0.00000646,-0.000009
 11,-0.00001866,0.00000194,-0.00000140,0.00000823,0.00000198,0.00000083
 ,-0.00000053,-0.00000603,0.00001770,-0.00003898,0.00000164,-0.00002945
 ,-0.00000413,-0.00000680,0.00003821,-0.00001380,-0.00002367\\\@


 KINETICS       FACT
 ---------  =  -------
 MECHANISM     FICTION
 Job cpu time:       0 days  1 hours 46 minutes 45.8 seconds.
 Elapsed time:       0 days  0 hours  9 minutes 11.9 seconds.
 File lengths (MBytes):  RWF=    162 Int=      0 D2E=      0 Chk=     32 Scr=      1
 Normal termination of Gaussian 16 at Fri Jun 10 04:15:32 2022.
