 Entering Gaussian System, Link 0=g16
 Input=ts_zmat_field_N25.gjf
 Output=ts_zmat_field_N25.out
 Initial command:
 /software/gaussian/g16-a03/l1.exe "/local_scratch/11171306/Gau-16940.inp" -scrdir="/local_scratch/11171306/"
 Entering Link 1 = /software/gaussian/g16-a03/l1.exe PID=     16941.
  
 Copyright (c) 1988,1990,1992,1993,1995,1998,2003,2009,2016,
            Gaussian, Inc.  All Rights Reserved.
  
 This is part of the Gaussian(R) 16 program.  It is based on
 the Gaussian(R) 09 system (copyright 2009, Gaussian, Inc.),
 the Gaussian(R) 03 system (copyright 2003, Gaussian, Inc.),
 the Gaussian(R) 98 system (copyright 1998, Gaussian, Inc.),
 the Gaussian(R) 94 system (copyright 1995, Gaussian, Inc.),
 the Gaussian 92(TM) system (copyright 1992, Gaussian, Inc.),
 the Gaussian 90(TM) system (copyright 1990, Gaussian, Inc.),
 the Gaussian 88(TM) system (copyright 1988, Gaussian, Inc.),
 the Gaussian 86(TM) system (copyright 1986, Carnegie Mellon
 University), and the Gaussian 82(TM) system (copyright 1983,
 Carnegie Mellon University). Gaussian is a federally registered
 trademark of Gaussian, Inc.
  
 This software contains proprietary and confidential information,
 including trade secrets, belonging to Gaussian, Inc.
  
 This software is provided under written license and may be
 used, copied, transmitted, or stored only in accord with that
 written license.
  
 The following legend is applicable only to US Government
 contracts under FAR:
  
                    RESTRICTED RIGHTS LEGEND
  
 Use, reproduction and disclosure by the US Government is
 subject to restrictions as set forth in subparagraphs (a)
 and (c) of the Commercial Computer Software - Restricted
 Rights clause in FAR 52.227-19.
  
 Gaussian, Inc.
 340 Quinnipiac St., Bldg. 40, Wallingford CT 06492
  
  
 ---------------------------------------------------------------
 Warning -- This program may not be used in any manner that
 competes with the business of Gaussian, Inc. or will provide
 assistance to any competitor of Gaussian, Inc.  The licensee
 of this program is prohibited from giving any competitor of
 Gaussian, Inc. access to this program.  By using this program,
 the user acknowledges that Gaussian, Inc. is engaged in the
 business of creating and licensing software in the field of
 computational chemistry and represents and warrants to the
 licensee that it is not a competitor of Gaussian, Inc. and that
 it will not use this program in any manner prohibited above.
 ---------------------------------------------------------------
  

 Cite this work as:
 Gaussian 16, Revision A.03,
 M. J. Frisch, G. W. Trucks, H. B. Schlegel, G. E. Scuseria, 
 M. A. Robb, J. R. Cheeseman, G. Scalmani, V. Barone, 
 G. A. Petersson, H. Nakatsuji, X. Li, M. Caricato, A. V. Marenich, 
 J. Bloino, B. G. Janesko, R. Gomperts, B. Mennucci, H. P. Hratchian, 
 J. V. Ortiz, A. F. Izmaylov, J. L. Sonnenberg, D. Williams-Young, 
 F. Ding, F. Lipparini, F. Egidi, J. Goings, B. Peng, A. Petrone, 
 T. Henderson, D. Ranasinghe, V. G. Zakrzewski, J. Gao, N. Rega, 
 G. Zheng, W. Liang, M. Hada, M. Ehara, K. Toyota, R. Fukuda, 
 J. Hasegawa, M. Ishida, T. Nakajima, Y. Honda, O. Kitao, H. Nakai, 
 T. Vreven, K. Throssell, J. A. Montgomery, Jr., J. E. Peralta, 
 F. Ogliaro, M. J. Bearpark, J. J. Heyd, E. N. Brothers, K. N. Kudin, 
 V. N. Staroverov, T. A. Keith, R. Kobayashi, J. Normand, 
 K. Raghavachari, A. P. Rendell, J. C. Burant, S. S. Iyengar, 
 J. Tomasi, M. Cossi, J. M. Millam, M. Klene, C. Adamo, R. Cammi, 
 J. W. Ochterski, R. L. Martin, K. Morokuma, O. Farkas, 
 J. B. Foresman, and D. J. Fox, Gaussian, Inc., Wallingford CT, 2016.
 
 ******************************************
 Gaussian 16:  ES64L-G16RevA.03 25-Dec-2016
                10-Jun-2022 
 ******************************************
 %nprocshared=12
 Will use up to   12 processors via shared memory.
 %chk=checkpoint.chk
 %mem=12GB
 ----------------------------------------------------------------------
 # Opt=(TS, CalcFC, noeigentest, Z-matrix, MaxStep=10) Field=read NoSym
 m B3LYP/Def2TZVP freq=noraman pop=none
 ----------------------------------------------------------------------
 1/5=1,8=10,10=4,11=1,18=40,26=3,38=1/1,3;
 2/12=2,15=1,17=6,18=5,29=3,40=1/2;
 3/5=44,7=101,11=2,14=-6,25=1,30=1,71=2,74=-5,140=1/1,2,3;
 4//1;
 5/5=2,38=5/2;
 8/6=4,10=90,11=11/1;
 11/6=1,8=1,9=11,15=111,16=1,31=1/1,2,10;
 10/6=1,13=1,31=1/2;
 7/10=1,18=20,25=1,30=1/1,2,3,16;
 1/5=1,8=10,10=4,11=1,18=40,26=3/3(2);
 2/15=1,29=3/2;
 99//99;
 2/15=1,29=3/2;
 3/5=44,7=101,11=2,14=-2,25=1,30=1,71=1,74=-5/1,2,3;
 4/5=5,16=3,69=1/1;
 5/5=2,38=5/2;
 7/30=1/1,2,3,16;
 1/5=1,8=10,11=1,18=40,26=3/3(-5);
 2/15=1,29=3/2;
 99/9=1/99;
 -----------------
 ts_zmat_initalOpt
 -----------------
 Symbolic Z-matrix:
 Charge =  0 Multiplicity = 1
 C
 C                    1    R2
 C                    1    R3       2    A3
 H                    1    R4       2    A4       3    D4       0
 H                    1    R5       2    A5       3    D5       0
 C                    2    R6       1    A6       3    D6       0
 C                    3    R7       1    A7       2    D7       0
 H                    2    R8       1    A8       6    D8       0
 H                    2    R9       1    A9       6    D9       0
 H                    3    R10      1    A10      7    D10      0
 C                    7    R11      3    A11      1    D11      0
 C                    6    R12      2    A12      1    D12      0
 H                    6    R13      2    A13      12   D13      0
 H                    7    R14      3    A14      11   D14      0
 C                    12   R15      6    A15      2    D15      0
 H                    12   R16      6    A16      15   D16      0
 H                    11   R17      7    A17      3    D17      0
 H                    11   R18      7    A18      17   D18      0
 H                    15   R19      12   A19      6    D19      0
 H                    15   R20      12   A20      19   D20      0
       Variables:
  R2                    1.5392                   
  R3                    1.52389                  
  R4                    1.09159                  
  R5                    1.09156                  
  R6                    1.52389                  
  R7                    1.39164                  
  R8                    1.09159                  
  R9                    1.09156                  
  R10                   1.08383                  
  R11                   1.37677                  
  R12                   1.39164                  
  R13                   1.08383                  
  R14                   1.08651                  
  R15                   1.37677                  
  R16                   1.08651                  
  R17                   1.07998                  
  R18                   1.0816                   
  R19                   1.07998                  
  R20                   1.0816                   
  A3                  102.25227                  
  A4                  112.61872                  
  A5                  112.82168                  
  A6                  102.25231                  
  A7                  123.93291                  
  A8                  112.61857                  
  A9                  112.82172                  
  A10                 116.4387                   
  A11                 124.75675                  
  A12                 123.93288                  
  A13                 116.43876                  
  A14                 116.33963                  
  A15                 124.75683                  
  A16                 116.33962                  
  A17                 121.28355                  
  A18                 120.14802                  
  A19                 121.28354                  
  A20                 120.14809                  
  D4                  118.9114                   
  D5                 -120.13858                  
  D6                   -0.00018                  
  D7                 -100.07285                  
  D8                 -118.9114                   
  D9                  120.13865                  
  D10                -161.242                    
  D11                  18.89245                  
  D12                 100.07311                  
  D13                 161.24205                  
  D14                 165.07176                  
  D15                 -18.89227                  
  D16                -165.07196                  
  D17                 -25.7028                   
  D18                -159.52692                  
  D19                  25.70267                  
  D20                 159.52712                  
 

 GradGradGradGradGradGradGradGradGradGradGradGradGradGradGradGradGradGrad
 Berny optimization.
 Initialization pass.
                       ----------------------------
                       !    Initial Parameters    !
                       ! (Angstroms and Degrees)  !
 ----------------------                            ----------------------
 !      Name          Value   Derivative information (Atomic Units)     !
 ------------------------------------------------------------------------
 !       R2          1.5392   calculate D2E/DX2 analytically            !
 !       R3          1.5239   calculate D2E/DX2 analytically            !
 !       R4          1.0916   calculate D2E/DX2 analytically            !
 !       R5          1.0916   calculate D2E/DX2 analytically            !
 !       R6          1.5239   calculate D2E/DX2 analytically            !
 !       R7          1.3916   calculate D2E/DX2 analytically            !
 !       R8          1.0916   calculate D2E/DX2 analytically            !
 !       R9          1.0916   calculate D2E/DX2 analytically            !
 !       R10         1.0838   calculate D2E/DX2 analytically            !
 !       R11         1.3768   calculate D2E/DX2 analytically            !
 !       R12         1.3916   calculate D2E/DX2 analytically            !
 !       R13         1.0838   calculate D2E/DX2 analytically            !
 !       R14         1.0865   calculate D2E/DX2 analytically            !
 !       R15         1.3768   calculate D2E/DX2 analytically            !
 !       R16         1.0865   calculate D2E/DX2 analytically            !
 !       R17         1.08     calculate D2E/DX2 analytically            !
 !       R18         1.0816   calculate D2E/DX2 analytically            !
 !       R19         1.08     calculate D2E/DX2 analytically            !
 !       R20         1.0816   calculate D2E/DX2 analytically            !
 !       A3        102.2523   calculate D2E/DX2 analytically            !
 !       A4        112.6187   calculate D2E/DX2 analytically            !
 !       A5        112.8217   calculate D2E/DX2 analytically            !
 !       A6        102.2523   calculate D2E/DX2 analytically            !
 !       A7        123.9329   calculate D2E/DX2 analytically            !
 !       A8        112.6186   calculate D2E/DX2 analytically            !
 !       A9        112.8217   calculate D2E/DX2 analytically            !
 !       A10       116.4387   calculate D2E/DX2 analytically            !
 !       A11       124.7567   calculate D2E/DX2 analytically            !
 !       A12       123.9329   calculate D2E/DX2 analytically            !
 !       A13       116.4388   calculate D2E/DX2 analytically            !
 !       A14       116.3396   calculate D2E/DX2 analytically            !
 !       A15       124.7568   calculate D2E/DX2 analytically            !
 !       A16       116.3396   calculate D2E/DX2 analytically            !
 !       A17       121.2836   calculate D2E/DX2 analytically            !
 !       A18       120.148    calculate D2E/DX2 analytically            !
 !       A19       121.2835   calculate D2E/DX2 analytically            !
 !       A20       120.1481   calculate D2E/DX2 analytically            !
 !       D4        118.9114   calculate D2E/DX2 analytically            !
 !       D5       -120.1386   calculate D2E/DX2 analytically            !
 !       D6         -0.0002   calculate D2E/DX2 analytically            !
 !       D7       -100.0728   calculate D2E/DX2 analytically            !
 !       D8       -118.9114   calculate D2E/DX2 analytically            !
 !       D9        120.1387   calculate D2E/DX2 analytically            !
 !       D10      -161.242    calculate D2E/DX2 analytically            !
 !       D11        18.8924   calculate D2E/DX2 analytically            !
 !       D12       100.0731   calculate D2E/DX2 analytically            !
 !       D13       161.2421   calculate D2E/DX2 analytically            !
 !       D14       165.0718   calculate D2E/DX2 analytically            !
 !       D15       -18.8923   calculate D2E/DX2 analytically            !
 !       D16      -165.072    calculate D2E/DX2 analytically            !
 !       D17       -25.7028   calculate D2E/DX2 analytically            !
 !       D18      -159.5269   calculate D2E/DX2 analytically            !
 !       D19        25.7027   calculate D2E/DX2 analytically            !
 !       D20       159.5271   calculate D2E/DX2 analytically            !
 ------------------------------------------------------------------------
 Trust Radius=1.00D-01 FncErr=1.00D-07 GrdErr=1.00D-06 EigMax=2.50D+02 EigMin=1.00D-04
 Number of steps in this run=     64 maximum allowed number of steps=    108.
 Search for a saddle point of order  1.
 GradGradGradGradGradGradGradGradGradGradGradGradGradGradGradGradGradGrad

 ---------------------------------------------------------------------------------------------------
                            Z-MATRIX (ANGSTROMS AND DEGREES)
   CD    Cent   Atom    N1       Length/X        N2       Alpha/Y        N3        Beta/Z          J
 ---------------------------------------------------------------------------------------------------
      1      1  C 
      2      2  C        1   1.539197(     1)
      3      3  C        1   1.523893(     2)      2  102.252(    20)
      4      4  H        1   1.091590(     3)      2  112.619(    21)      3  118.911(    38)      0
      5      5  H        1   1.091556(     4)      2  112.822(    22)      3 -120.139(    39)      0
      6      6  C        2   1.523892(     5)      1  102.252(    23)      3   -0.000(    40)      0
      7      7  C        3   1.391637(     6)      1  123.933(    24)      2 -100.073(    41)      0
      8      8  H        2   1.091590(     7)      1  112.619(    25)      6 -118.911(    42)      0
      9      9  H        2   1.091556(     8)      1  112.822(    26)      6  120.139(    43)      0
     10     10  H        3   1.083833(     9)      1  116.439(    27)      7 -161.242(    44)      0
     11     11  C        7   1.376766(    10)      3  124.757(    28)      1   18.892(    45)      0
     12     12  C        6   1.391636(    11)      2  123.933(    29)      1  100.073(    46)      0
     13     13  H        6   1.083832(    12)      2  116.439(    30)     12  161.242(    47)      0
     14     14  H        7   1.086512(    13)      3  116.340(    31)     11  165.072(    48)      0
     15     15  C       12   1.376766(    14)      6  124.757(    32)      2  -18.892(    49)      0
     16     16  H       12   1.086512(    15)      6  116.340(    33)     15 -165.072(    50)      0
     17     17  H       11   1.079977(    16)      7  121.284(    34)      3  -25.703(    51)      0
     18     18  H       11   1.081601(    17)      7  120.148(    35)     17 -159.527(    52)      0
     19     19  H       15   1.079977(    18)     12  121.284(    36)      6   25.703(    53)      0
     20     20  H       15   1.081600(    19)     12  120.148(    37)     19  159.527(    54)      0
 ---------------------------------------------------------------------------------------------------
                         Z-Matrix orientation:                         
 ---------------------------------------------------------------------
 Center     Atomic      Atomic             Coordinates (Angstroms)
 Number     Number       Type             X           Y           Z
 ---------------------------------------------------------------------
      1          6           0        0.000000    0.000000    0.000000
      2          6           0        0.000000    0.000000    1.539197
      3          6           0        1.489182    0.000000   -0.323395
      4          1           0       -0.487145   -0.882048   -0.419822
      5          1           0       -0.505159    0.870093   -0.423376
      6          6           0        1.489181   -0.000005    1.862593
      7          6           0        2.205474    1.136833   -0.685599
      8          1           0       -0.487149   -0.882047    1.959017
      9          1           0       -0.505157    0.870094    1.962573
     10          1           0        1.929657   -0.959348   -0.569012
     11          6           0        1.796115    2.430259   -0.451165
     12          6           0        2.205474    1.136824    2.224802
     13          1           0        1.929655   -0.959354    2.108205
     14          1           0        3.247254    0.984981   -0.954195
     15          6           0        1.796117    2.430253    1.990378
     16          1           0        3.247254    0.984969    2.493398
     17          1           0        0.749869    2.677350   -0.347891
     18          1           0        2.450083    3.258453   -0.688400
     19          1           0        0.749872    2.677346    1.887105
     20          1           0        2.450086    3.258444    2.227615
 ---------------------------------------------------------------------
                    Distance matrix (angstroms):
                    1          2          3          4          5
     1  C    0.000000
     2  C    1.539197   0.000000
     3  C    1.523893   2.384725   0.000000
     4  H    1.091590   2.202970   2.166374   0.000000
     5  H    1.091556   2.205434   2.178177   1.752237   0.000000
     6  C    2.384725   1.523892   2.185988   3.145360   3.155965
     7  C    2.574209   3.332600   1.391637   3.375902   2.736319
     8  H    2.202968   1.091590   3.145361   2.378839   2.957383
     9  H    2.205434   1.091556   3.155963   2.957386   2.385949
    10  H    2.228834   3.014709   1.083833   2.422637   3.048999
    11  C    3.055444   3.618526   2.452894   4.023137   2.780422
    12  C    3.332601   2.574206   2.880755   4.280196   3.798884
    13  H    3.014707   2.228833   2.650859   3.498260   3.960315
    14  H    3.524959   4.210920   2.111614   4.209167   3.791513
    15  C    3.618531   3.055442   3.369552   4.689743   3.681871
    16  H    4.210921   3.524957   3.463424   5.091006   4.754089
    17  H    2.802059   3.360299   2.777658   3.768911   2.201584
    18  H    4.134527   4.645709   3.416735   5.083620   3.808931
    19  H    3.360306   2.802058   3.549799   4.418304   3.190546
    20  H    4.645713   4.134526   4.248347   5.725376   4.633081
                    6          7          8          9         10
     6  C    0.000000
     7  C    2.880756   0.000000
     8  H    2.166374   4.280197   0.000000
     9  H    2.178176   3.798879   1.752237   0.000000
    10  H    2.650860   2.117461   3.498264   3.960316   0.000000
    11  C    3.369550   1.376766   4.689738   3.681861   3.394283
    12  C    1.391636   2.910401   3.375900   2.736316   3.503628
    13  H    1.083832   3.503629   2.422638   3.048999   2.677217
    14  H    3.463425   1.086512   5.091008   4.754085   2.380093
    15  C    2.452894   3.000226   4.023135   2.780419   4.249435
    16  H    2.111612   3.348790   4.209165   3.791511   3.859376
    17  H    3.549796   2.146165   4.418297   3.190535   3.829669
    18  H    4.248346   2.135676   5.725372   4.633072   4.251463
    19  H    2.777659   3.333281   3.768909   2.201580   4.544221
    20  H    3.416734   3.612186   5.083617   3.808927   5.087410
                   11         12         13         14         15
    11  C    0.000000
    12  C    3.000225   0.000000
    13  H    4.249433   2.117459   0.000000
    14  H    2.108950   3.348788   3.859378   0.000000
    15  C    2.441543   1.376766   3.394281   3.586797   0.000000
    16  H    3.586798   1.086512   2.380091   3.447593   2.108950
    17  H    1.079977   3.333280   4.544218   3.077117   2.573556
    18  H    1.081601   3.612186   5.087410   2.423800   2.879138
    19  H    2.573555   2.146165   3.829668   4.144153   1.079977
    20  H    2.879138   2.135677   4.251462   3.990993   1.081600
                   16         17         18         19         20
    16  H    0.000000
    17  H    4.144153   0.000000
    18  H    3.990996   1.828757   0.000000
    19  H    3.077117   2.234996   3.140323   0.000000
    20  H    2.423800   3.140325   2.916015   1.828757   0.000000
 Symmetry turned off by external request.
 Stoichiometry    C8H12
 Framework group  C1[X(C8H12)]
 Deg. of freedom    54
 Full point group                 C1      NOp   1
 Rotational constants (GHZ):           2.4921688           2.3101024           1.5833667
 Standard basis: def2TZVP (5D, 7F)
 The following finite field(s) will be applied:
 An electric field of              0.0006  0.0006 -0.0023
   320 basis functions,   504 primitive gaussians,   360 cartesian basis functions
    30 alpha electrons       30 beta electrons
       nuclear repulsion energy       368.2317443617 Hartrees.
 NAtoms=   20 NActive=   20 NUniq=   20 SFac= 1.00D+00 NAtFMM=   60 NAOKFM=F Big=F
 Integral buffers will be    131072 words long.
 Raffenetti 2 integral format.
 Two-electron integral symmetry is turned off.
 One-electron integrals computed using PRISM.
   1 Symmetry operations used in ECPInt.
 ECPInt:  NShTT=    9316 NPrTT=   27240 LenC2=    9239 LenP2D=   22136.
 LDataN:  DoStor=T MaxTD1= 6 Len=  172
 NBasis=   320 RedAO= T EigKep=  2.55D-05  NBF=   320
 NBsUse=   320 1.00D-06 EigRej= -1.00D+00 NBFU=   320
 The nuclear repulsion energy is now       368.1873589831 hartrees.
 ExpMin= 9.52D-02 ExpMax= 1.36D+04 ExpMxC= 4.63D+02 IAcc=3 IRadAn=         5 AccDes= 0.00D+00
 Harris functional with IExCor=  402 and IRadAn=       5 diagonalized for initial guess.
 HarFok:  IExCor=  402 AccDes= 0.00D+00 IRadAn=         5 IDoV= 1 UseB2=F ITyADJ=14
 ICtDFT=  3500011 ScaDFX=  1.000000  1.000000  1.000000  1.000000
 FoFCou: FMM=F IPFlag=           0 FMFlag=      100000 FMFlg1=           0
         NFxFlg=           0 DoJE=T BraDBF=F KetDBF=T FulRan=T
         wScrn=  0.000000 ICntrl=       500 IOpCl=  0 I1Cent=   200000004 NGrid=           0
         NMat0=    1 NMatS0=      1 NMatT0=    0 NMatD0=    1 NMtDS0=    0 NMtDT0=    0
 Symmetry not used in FoFCou.
 Requested convergence on RMS density matrix=1.00D-08 within 128 cycles.
 Requested convergence on MAX density matrix=1.00D-06.
 Requested convergence on             energy=1.00D-06.
 No special actions if energy rises.
 Integral accuracy reduced to 1.0D-05 until final iterations.
 Initial convergence to 1.0D-05 achieved.  Increase integral accuracy.
 SCF Done:  E(RB3LYP) =  -312.080280946     A.U. after   14 cycles
            NFock= 14  Conv=0.72D-08     -V/T= 2.0056
 DoSCS=F DFT=T ScalE2(SS,OS)=  1.000000  1.000000
 Range of M.O.s used for correlation:     1   320
 NBasis=   320 NAE=    30 NBE=    30 NFC=     0 NFV=     0
 NROrb=    320 NOA=    30 NOB=    30 NVA=   290 NVB=   290

 **** Warning!!: The largest alpha MO coefficient is  0.39736453D+02

   1 Symmetry operations used in ECPInt.
 ECPInt:  NShTT=    9316 NPrTT=   27240 LenC2=    9239 LenP2D=   22136.
 LDataN:  DoStor=T MaxTD1= 7 Len=  274
 Symmetrizing basis deriv contribution to polar:
 IMax=3 JMax=2 DiffMx= 0.00D+00
 G2DrvN: will do    21 centers at a time, making    1 passes.
 Calling FoFCou, ICntrl=  3107 FMM=F I1Cent=   0 AccDes= 0.00D+00.
 End of G2Drv F.D. properties file   721 does not exist.
 End of G2Drv F.D. properties file   722 does not exist.
 End of G2Drv F.D. properties file   788 does not exist.
          IDoAtm=11111111111111111111
          Differentiating once with respect to nuclear coordinates.
 Keep R1 ints in memory in canonical form, NReq=1342482924.
          There are    63 degrees of freedom in the 1st order CPHF.  IDoFFX=6 NUNeed=     0.
     57 vectors produced by pass  0 Test12= 1.38D-14 1.59D-09 XBig12= 8.96D-02 1.23D-01.
 AX will form    57 AO Fock derivatives at one time.
     57 vectors produced by pass  1 Test12= 1.38D-14 1.59D-09 XBig12= 1.88D-02 5.65D-02.
     57 vectors produced by pass  2 Test12= 1.38D-14 1.59D-09 XBig12= 1.98D-04 2.12D-03.
     57 vectors produced by pass  3 Test12= 1.38D-14 1.59D-09 XBig12= 8.28D-07 1.01D-04.
     57 vectors produced by pass  4 Test12= 1.38D-14 1.59D-09 XBig12= 1.76D-09 5.94D-06.
     48 vectors produced by pass  5 Test12= 1.38D-14 1.59D-09 XBig12= 2.90D-12 1.96D-07.
     10 vectors produced by pass  6 Test12= 1.38D-14 1.59D-09 XBig12= 3.64D-15 5.53D-09.
 InvSVY:  IOpt=1 It=  1 EMax= 5.00D-16
 Solved reduced A of dimension   343 with    63 vectors.
 End of Minotr F.D. properties file   721 does not exist.
 End of Minotr F.D. properties file   722 does not exist.
 End of Minotr F.D. properties file   788 does not exist.
   1 Symmetry operations used in ECPInt.
 ECPInt:  NShTT=    9316 NPrTT=   27240 LenC2=    9239 LenP2D=   22136.
 LDataN:  DoStor=T MaxTD1= 8 Len=  415
 Calling FoFJK, ICntrl=    100147 FMM=F ISym2X=0 I1Cent= 0 IOpClX= 0 NMat=1 NMatS=1 NMatT=0.
 -------------------------------------------------------------------
 Center     Atomic                   Forces (Hartrees/Bohr)
 Number     Number              X              Y              Z
 -------------------------------------------------------------------
      1        6           0.000319763   -0.000122182    0.000170347
      2        6          -0.000445648   -0.000028430    0.000257161
      3        6           0.000283020   -0.000184797   -0.000150577
      4        1          -0.000048576   -0.000086935    0.000102087
      5        1          -0.000065320    0.000167977    0.000000434
      6        6          -0.000390825    0.000144597   -0.000046729
      7        6          -0.000521932   -0.000293859   -0.000694793
      8        1           0.000185570    0.000319942   -0.000015927
      9        1           0.000076224   -0.000244376   -0.000010224
     10        1           0.000052217   -0.000111604    0.000096270
     11        6           0.000026310    0.000398041   -0.000050873
     12        6           0.000499436    0.000276569   -0.000757958
     13        1          -0.000043502    0.000119403    0.000029084
     14        1           0.000300639   -0.000052133    0.000237856
     15        6          -0.000191526   -0.000354617   -0.000008419
     16        1          -0.000160919   -0.000005915    0.000278649
     17        1           0.000024369    0.000003063    0.000126287
     18        1           0.000117721    0.000151343    0.000059242
     19        1           0.000020882   -0.000035523    0.000190655
     20        1          -0.000037904   -0.000060564    0.000187427
 -------------------------------------------------------------------
 Cartesian Forces:  Max     0.000757958 RMS     0.000240692
 -----------------------------------------------------------------------------------------------
                       Internal Coordinate Forces (Hartree/Bohr or radian)
  Cent   Atom   N1       Length/X         N2         Alpha/Y        N3         Beta/Z          J
 -----------------------------------------------------------------------------------------------
      1  C 
      2  C        1   0.000104(     1)
      3  C        1   0.000356(     2)      2   0.000942(    20)
      4  H        1   0.000053(     3)      2  -0.000273(    21)      3   0.000001(    38)     0
      5  H        1   0.000164(     4)      2  -0.000143(    22)      3   0.000053(    39)     0
      6  C        2  -0.000324(     5)      1  -0.000238(    23)      3   0.000702(    40)     0
      7  C        3   0.000225(     6)      1   0.000503(    24)      2  -0.000455(    41)     0
      8  H        2  -0.000347(     7)      1   0.000263(    25)      6   0.000015(    42)     0
      9  H        2  -0.000234(     8)      1   0.000180(    26)      6   0.000108(    43)     0
     10  H        3   0.000098(     9)      1  -0.000030(    27)      7  -0.000222(    44)     0
     11  C        7   0.000492(    10)      3   0.000617(    28)      1   0.000078(    45)     0
     12  C        6  -0.000109(    11)      2  -0.000100(    29)      1   0.000863(    46)     0
     13  H        6  -0.000117(    12)      2   0.000036(    30)     12  -0.000101(    47)     0
     14  H        7   0.000237(    13)      3  -0.000126(    31)     11  -0.000552(    48)     0
     15  C       12  -0.000424(    14)      6  -0.000288(    32)      2   0.000646(    49)     0
     16  H       12  -0.000085(    15)      6   0.000051(    33)     15  -0.000570(    50)     0
     17  H       11  -0.000011(    16)      7   0.000054(    34)      3   0.000053(    51)     0
     18  H       11   0.000174(    17)      7   0.000071(    35)     17  -0.000166(    52)     0
     19  H       15  -0.000047(    18)     12  -0.000114(    36)      6  -0.000011(    53)     0
     20  H       15  -0.000028(    19)     12  -0.000150(    37)     19  -0.000326(    54)     0
 -----------------------------------------------------------------------------------------------
 Internal  Forces:  Max     0.000941661 RMS     0.000324626

 GradGradGradGradGradGradGradGradGradGradGradGradGradGradGradGradGradGrad
 Berny optimization.
 Search for a saddle point.
 Step number   1 out of a maximum of   64
 All quantities printed in internal units (Hartrees-Bohrs-Radians)
 Swapping is turned off.
 Second derivative matrix not updated -- analytic derivatives used.
 ITU=  0
     Eigenvalues ---   -0.13953   0.00668   0.01446   0.02240   0.03607
     Eigenvalues ---    0.06082   0.06150   0.07146   0.07353   0.11621
     Eigenvalues ---    0.11791   0.11955   0.13641   0.14043   0.14588
     Eigenvalues ---    0.14638   0.16890   0.17086   0.17380   0.18621
     Eigenvalues ---    0.20142   0.22170   0.23396   0.24307   0.25568
     Eigenvalues ---    0.27367   0.28769   0.28858   0.29664   0.31364
     Eigenvalues ---    0.32756   0.32886   0.33090   0.33744   0.34155
     Eigenvalues ---    0.34928   0.35137   0.35287   0.35610   0.35743
     Eigenvalues ---    0.35863   0.36745   0.36941   0.38304   0.41936
     Eigenvalues ---    0.43388   0.44740   0.47119   0.50622   0.53578
     Eigenvalues ---    0.57871   0.76211   1.23988   2.44234
 Eigenvectors required to have negative eigenvalues:
                          D7        D12       D19       D17       A3
   1                    0.45091  -0.44818   0.24620  -0.24264   0.22772
                          A6        D10       D13       R12       R7
   1                    0.22750  -0.22570   0.22552  -0.20211  -0.19864
 RFO step:  Lambda0=1.064918641D-06 Lambda=-2.61397602D-05.
 Linear search not attempted -- option 19 set.
 Variable       Old X    -DE/DX   Delta X   Delta X   Delta X     New X
                                 (Linear)    (Quad)   (Total)
    R2        2.90866   0.00010   0.00000   0.00002   0.00002   2.90869
    R3        2.87974   0.00036   0.00000   0.00010   0.00010   2.87984
    R4        2.06281   0.00005   0.00000   0.00026   0.00026   2.06306
    R5        2.06274   0.00016   0.00000   0.00037   0.00037   2.06311
    R6        2.87974  -0.00032   0.00000  -0.00044  -0.00044   2.87930
    R7        2.62981   0.00023   0.00000   0.00002   0.00002   2.62984
    R8        2.06281  -0.00035   0.00000  -0.00111  -0.00111   2.06170
    R9        2.06274  -0.00023   0.00000  -0.00056  -0.00056   2.06219
   R10        2.04815   0.00010   0.00000   0.00017   0.00017   2.04832
   R11        2.60171   0.00049   0.00000   0.00159   0.00159   2.60330
   R12        2.62981  -0.00011   0.00000  -0.00067  -0.00067   2.62914
   R13        2.04815  -0.00012   0.00000  -0.00027  -0.00027   2.04788
   R14        2.05321   0.00024   0.00000   0.00080   0.00080   2.05401
   R15        2.60171  -0.00042   0.00000  -0.00094  -0.00094   2.60077
   R16        2.05321  -0.00008   0.00000  -0.00038  -0.00038   2.05283
   R17        2.04086  -0.00001   0.00000  -0.00012  -0.00012   2.04074
   R18        2.04393   0.00017   0.00000   0.00041   0.00041   2.04434
   R19        2.04086  -0.00005   0.00000   0.00003   0.00003   2.04089
   R20        2.04393  -0.00003   0.00000  -0.00001  -0.00001   2.04392
    A3        1.78464   0.00094   0.00000   0.00158   0.00158   1.78622
    A4        1.96557  -0.00027   0.00000  -0.00062  -0.00062   1.96495
    A5        1.96911  -0.00014   0.00000  -0.00149  -0.00149   1.96762
    A6        1.78464  -0.00024   0.00000  -0.00038  -0.00038   1.78426
    A7        2.16304   0.00050   0.00000  -0.00052  -0.00052   2.16251
    A8        1.96556   0.00026   0.00000   0.00006   0.00006   1.96563
    A9        1.96911   0.00018   0.00000   0.00147   0.00147   1.97058
   A10        2.03224  -0.00003   0.00000   0.00038   0.00038   2.03261
   A11        2.17742   0.00062   0.00000   0.00114   0.00114   2.17855
   A12        2.16304  -0.00010   0.00000   0.00154   0.00154   2.16458
   A13        2.03224   0.00004   0.00000  -0.00036  -0.00036   2.03188
   A14        2.03051  -0.00013   0.00000  -0.00161  -0.00161   2.02890
   A15        2.17742  -0.00029   0.00000  -0.00082  -0.00082   2.17660
   A16        2.03051   0.00005   0.00000   0.00138   0.00138   2.03189
   A17        2.11680   0.00005   0.00000   0.00059   0.00059   2.11739
   A18        2.09698   0.00007   0.00000  -0.00002  -0.00002   2.09695
   A19        2.11680  -0.00011   0.00000  -0.00097  -0.00097   2.11583
   A20        2.09698  -0.00015   0.00000  -0.00043  -0.00043   2.09655
    D4        2.07540   0.00000   0.00000   0.00222   0.00222   2.07761
    D5       -2.09681   0.00005   0.00000   0.00101   0.00101  -2.09580
    D6       -0.00000   0.00070   0.00000   0.00955   0.00955   0.00955
    D7       -1.74660  -0.00045   0.00000  -0.00709  -0.00709  -1.75369
    D8       -2.07540   0.00001   0.00000   0.00232   0.00232  -2.07307
    D9        2.09682   0.00011   0.00000   0.00177   0.00177   2.09859
   D10       -2.81420  -0.00022   0.00000  -0.00445  -0.00445  -2.81865
   D11        0.32974   0.00008   0.00000   0.00079   0.00079   0.33052
   D12        1.74661   0.00086   0.00000  -0.00915  -0.00915   1.73746
   D13        2.81420  -0.00010   0.00000   0.00048   0.00048   2.81469
   D14        2.88105  -0.00055   0.00000  -0.00911  -0.00911   2.87194
   D15       -0.32973   0.00065   0.00000   0.00448   0.00448  -0.32526
   D16       -2.88105  -0.00057   0.00000  -0.01115  -0.01115  -2.89219
   D17       -0.44860   0.00005   0.00000  -0.00424  -0.00424  -0.45284
   D18       -2.78427  -0.00017   0.00000  -0.00277  -0.00277  -2.78704
   D19        0.44860  -0.00001   0.00000  -0.00542  -0.00542   0.44318
   D20        2.78427  -0.00033   0.00000  -0.00496  -0.00496   2.77932
         Item               Value     Threshold  Converged?
 Maximum Force            0.000942     0.000450     NO 
 RMS     Force            0.000325     0.000300     NO 
 Maximum Displacement     0.011145     0.001800     NO 
 RMS     Displacement     0.003312     0.001200     NO 
 Predicted change in Energy=-1.254506D-05
 GradGradGradGradGradGradGradGradGradGradGradGradGradGradGradGradGradGrad

 ---------------------------------------------------------------------------------------------------
                            Z-MATRIX (ANGSTROMS AND DEGREES)
   CD    Cent   Atom    N1       Length/X        N2       Alpha/Y        N3        Beta/Z          J
 ---------------------------------------------------------------------------------------------------
      1      1  C 
      2      2  C        1   1.539210(     1)
      3      3  C        1   1.523946(     2)      2  102.343(    20)
      4      4  H        1   1.091726(     3)      2  112.583(    21)      3  119.038(    38)      0
      5      5  H        1   1.091751(     4)      2  112.736(    22)      3 -120.081(    39)      0
      6      6  C        2   1.523661(     5)      1  102.231(    23)      3    0.547(    40)      0
      7      7  C        3   1.391650(     6)      1  123.903(    24)      2 -100.479(    41)      0
      8      8  H        2   1.091002(     7)      1  112.622(    25)      6 -118.778(    42)      0
      9      9  H        2   1.091261(     8)      1  112.906(    26)      6  120.240(    43)      0
     10     10  H        3   1.083924(     9)      1  116.460(    27)      7 -161.497(    44)      0
     11     11  C        7   1.377608(    10)      3  124.822(    28)      1   18.938(    45)      0
     12     12  C        6   1.391282(    11)      2  124.021(    29)      1   99.549(    46)      0
     13     13  H        6   1.083691(    12)      2  116.418(    30)     12  161.270(    47)      0
     14     14  H        7   1.086936(    13)      3  116.248(    31)     11  164.550(    48)      0
     15     15  C       12   1.376268(    14)      6  124.710(    32)      2  -18.636(    49)      0
     16     16  H       12   1.086309(    15)      6  116.418(    33)     15 -165.711(    50)      0
     17     17  H       11   1.079911(    16)      7  121.318(    34)      3  -25.946(    51)      0
     18     18  H       11   1.081819(    17)      7  120.147(    35)     17 -159.685(    52)      0
     19     19  H       15   1.079995(    18)     12  121.228(    36)      6   25.392(    53)      0
     20     20  H       15   1.081595(    19)     12  120.123(    37)     19  159.243(    54)      0
 ---------------------------------------------------------------------------------------------------
                         Z-Matrix orientation:                         
 ---------------------------------------------------------------------
 Center     Atomic      Atomic             Coordinates (Angstroms)
 Number     Number       Type             X           Y           Z
 ---------------------------------------------------------------------
      1          6           0        0.000000    0.000000    0.000000
      2          6           0        0.000000    0.000000    1.539210
      3          6           0        1.488722    0.000000   -0.325761
      4          1           0       -0.489288   -0.881302   -0.419249
      5          1           0       -0.504684    0.871306   -0.421949
      6          6           0        1.489010    0.014218    1.861995
      7          6           0        2.202119    1.135782   -0.696913
      8          1           0       -0.476371   -0.887268    1.958867
      9          1           0       -0.514522    0.863549    1.963947
     10          1           0        1.931575   -0.960876   -0.561324
     11          6           0        1.792010    2.431273   -0.470377
     12          6           0        2.198346    1.158203    2.213855
     13          1           0        1.936547   -0.939639    2.115478
     14          1           0        3.246129    0.983609   -0.958283
     15          6           0        1.777798    2.446250    1.972636
     16          1           0        3.239401    1.015720    2.489483
     17          1           0        0.745791    2.679447   -0.370160
     18          1           0        2.447449    3.258217   -0.708907
     19          1           0        0.729213    2.682457    1.867444
     20          1           0        2.422651    3.281349    2.210591
 ---------------------------------------------------------------------
                    Distance matrix (angstroms):
                    1          2          3          4          5
     1  C    0.000000
     2  C    1.539210   0.000000
     3  C    1.523946   2.386296   0.000000
     4  H    1.091726   2.202648   2.167476   0.000000
     5  H    1.091751   2.204546   2.177634   1.752677   0.000000
     6  C    2.384193   1.523661   2.187801   3.149554   3.150526
     7  C    2.573911   3.337600   1.391650   3.374818   2.733557
     8  H    2.202574   1.091002   3.141394   2.378159   2.960012
     9  H    2.206249   1.091261   3.162509   2.953771   2.385928
    10  H    2.229204   3.011064   1.083924   2.426333   3.051503
    11  C    3.056737   3.627785   2.454381   4.022448   2.776805
    12  C    3.327960   2.574744   2.880043   4.279743   3.786310
    13  H    3.018010   2.228278   2.653887   3.508977   3.959503
    14  H    3.524649   4.212162   2.110936   4.209726   3.790629
    15  C    3.610540   3.054924   3.369025   4.683310   3.663906
    16  H    4.209862   3.525398   3.467299   5.095345   4.745047
    17  H    2.805826   3.373623   2.780891   3.769186   2.199033
    18  H    4.136246   4.654032   3.417885   5.083694   3.807201
    19  H    3.348832   2.799119   3.547193   4.406142   3.169241
    20  H    4.639310   4.133672   4.251182   5.720412   4.616044
                    6          7          8          9         10
     6  C    0.000000
     7  C    2.883477   0.000000
     8  H    2.164436   4.280211   0.000000
     9  H    2.178508   3.812404   1.751240   0.000000
    10  H    2.649367   2.118385   3.486400   3.960923   0.000000
    11  C    3.372524   1.377608   4.696754   3.701862   3.396237
    12  C    1.391282   2.910857   3.376845   2.740243   3.501897
    13  H    1.083691   3.505345   2.418562   3.046669   2.676890
    14  H    3.461380   1.086936   5.085957   4.764067   2.380473
    15  C    2.451616   3.003975   4.024154   2.785632   4.248895
    16  H    2.112018   3.353132   4.208311   3.793585   3.863258
    17  H    3.555043   2.147221   4.431648   3.214643   3.833351
    18  H    4.248725   2.136600   5.731561   4.653155   4.253076
    19  H    2.774315   3.337301   3.768916   2.205587   4.540756
    20  H    3.415750   3.620175   5.083804   3.812292   5.091281
                   11         12         13         14         15
    11  C    0.000000
    12  C    2.998486   0.000000
    13  H    4.250951   2.116402   0.000000
    14  H    2.109087   3.345264   3.855113   0.000000
    15  C    2.443100   1.376268   3.392617   3.589652   0.000000
    16  H    3.586015   1.086309   2.379230   3.447922   2.109463
    17  H    1.079911   3.331851   4.549075   3.077897   2.570624
    18  H    1.081819   3.607582   5.085289   2.423617   2.880693
    19  H    2.580317   2.145158   3.826063   4.147974   1.079995
    20  H    2.882347   2.134964   4.249951   3.999936   1.081595
                   16         17         18         19         20
    16  H    0.000000
    17  H    4.142902   0.000000
    18  H    3.985684   1.829033   0.000000
    19  H    3.076685   2.237667   3.149828   0.000000
    20  H    2.424446   3.135987   2.919694   1.828703   0.000000
 Symmetry turned off by external request.
 Stoichiometry    C8H12
 Framework group  C1[X(C8H12)]
 Deg. of freedom    54
 Full point group                 C1      NOp   1
 Rotational constants (GHZ):           2.4908196           2.3098129           1.5826443
 Standard basis: def2TZVP (5D, 7F)
 The following finite field(s) will be applied:
 An electric field of              0.0006  0.0006 -0.0023
   320 basis functions,   504 primitive gaussians,   360 cartesian basis functions
    30 alpha electrons       30 beta electrons
       nuclear repulsion energy       368.1862818493 Hartrees.
 NAtoms=   20 NActive=   20 NUniq=   20 SFac= 1.00D+00 NAtFMM=   60 NAOKFM=F Big=F
 Integral buffers will be    131072 words long.
 Raffenetti 2 integral format.
 Two-electron integral symmetry is turned off.
 One-electron integrals computed using PRISM.
   1 Symmetry operations used in ECPInt.
 ECPInt:  NShTT=    9316 NPrTT=   27240 LenC2=    9239 LenP2D=   22129.
 LDataN:  DoStor=T MaxTD1= 6 Len=  172
 NBasis=   320 RedAO= T EigKep=  2.56D-05  NBF=   320
 NBsUse=   320 1.00D-06 EigRej= -1.00D+00 NBFU=   320
 The nuclear repulsion energy is now       368.1439642449 hartrees.
 Initial guess from the checkpoint file:  "checkpoint.chk"
 B after Tr=     0.001428   -0.009272   -0.005272
         Rot=    0.999992    0.003255    0.000518   -0.002309 Ang=   0.46 deg.
 Requested convergence on RMS density matrix=1.00D-08 within 128 cycles.
 Requested convergence on MAX density matrix=1.00D-06.
 Requested convergence on             energy=1.00D-06.
 No special actions if energy rises.
 SCF Done:  E(RB3LYP) =  -312.080293479     A.U. after    8 cycles
            NFock=  8  Conv=0.75D-08     -V/T= 2.0056
   1 Symmetry operations used in ECPInt.
 ECPInt:  NShTT=    9316 NPrTT=   27240 LenC2=    9239 LenP2D=   22129.
 LDataN:  DoStor=T MaxTD1= 7 Len=  274
 Calling FoFJK, ICntrl=      2127 FMM=F ISym2X=0 I1Cent= 0 IOpClX= 0 NMat=1 NMatS=1 NMatT=0.
 -------------------------------------------------------------------
 Center     Atomic                   Forces (Hartrees/Bohr)
 Number     Number              X              Y              Z
 -------------------------------------------------------------------
      1        6          -0.000044936   -0.000091446    0.000004855
      2        6           0.000048298    0.000124873   -0.000003926
      3        6          -0.000002145   -0.000036167   -0.000000173
      4        1          -0.000000709   -0.000000663    0.000000167
      5        1           0.000000095    0.000000276    0.000000756
      6        6          -0.000002768   -0.000002290   -0.000000514
      7        6           0.000002216    0.000003083    0.000005157
      8        1          -0.000001061   -0.000000831    0.000000345
      9        1           0.000000062    0.000000173   -0.000000992
     10        1           0.000000249   -0.000000496    0.000000479
     11        6          -0.000001772   -0.000000212   -0.000004685
     12        6           0.000002626    0.000003710   -0.000007618
     13        1          -0.000000204   -0.000000372   -0.000000138
     14        1           0.000000567   -0.000000945   -0.000000938
     15        6          -0.000001726    0.000001101    0.000005333
     16        1           0.000000325   -0.000001706    0.000001054
     17        1          -0.000000440    0.000000762    0.000001503
     18        1           0.000000638    0.000000184    0.000001511
     19        1          -0.000000132    0.000000909   -0.000000834
     20        1           0.000000817    0.000000057   -0.000001343
 -------------------------------------------------------------------
 Cartesian Forces:  Max     0.000124873 RMS     0.000022313
 -----------------------------------------------------------------------------------------------
                       Internal Coordinate Forces (Hartree/Bohr or radian)
  Cent   Atom   N1       Length/X         N2         Alpha/Y        N3         Beta/Z          J
 -----------------------------------------------------------------------------------------------
      1  C 
      2  C        1  -0.000009(     1)
      3  C        1  -0.000001(     2)      2  -0.000012(    20)
      4  H        1   0.000001(     3)      2  -0.000001(    21)      3   0.000001(    38)     0
      5  H        1  -0.000000(     4)      2  -0.000002(    22)      3   0.000000(    39)     0
      6  C        2  -0.000002(     5)      1  -0.000018(    23)      3  -0.000002(    40)     0
      7  C        3   0.000002(     6)      1  -0.000001(    24)      2   0.000005(    41)     0
      8  H        2   0.000001(     7)      1  -0.000000(    25)      6  -0.000001(    42)     0
      9  H        2  -0.000000(     8)      1  -0.000002(    26)      6  -0.000000(    43)     0
     10  H        3   0.000000(     9)      1  -0.000000(    27)      7  -0.000001(    44)     0
     11  C        7   0.000001(    10)      3  -0.000000(    28)      1  -0.000000(    45)     0
     12  C        6   0.000003(    11)      2   0.000004(    29)      1  -0.000004(    46)     0
     13  H        6   0.000000(    12)      2  -0.000001(    30)     12   0.000000(    47)     0
     14  H        7   0.000001(    13)      3  -0.000001(    31)     11   0.000002(    48)     0
     15  C       12   0.000002(    14)      6   0.000005(    32)      2   0.000003(    49)     0
     16  H       12   0.000001(    15)      6  -0.000003(    33)     15  -0.000002(    50)     0
     17  H       11   0.000001(    16)      7   0.000002(    34)      3  -0.000001(    51)     0
     18  H       11   0.000000(    17)      7   0.000000(    35)     17  -0.000003(    52)     0
     19  H       15   0.000000(    18)     12   0.000002(    36)      6   0.000002(    53)     0
     20  H       15   0.000000(    19)     12  -0.000000(    37)     19   0.000003(    54)     0
 -----------------------------------------------------------------------------------------------
 Internal  Forces:  Max     0.000018123 RMS     0.000003669

 GradGradGradGradGradGradGradGradGradGradGradGradGradGradGradGradGradGrad
 Berny optimization.
 Search for a saddle point.
 Step number   2 out of a maximum of   64
 All quantities printed in internal units (Hartrees-Bohrs-Radians)
 Swapping is turned off.
 Update second derivatives using D2CorN and points    1    2
 ITU=  0  0
     Eigenvalues ---   -0.13951   0.00674   0.01445   0.02239   0.03606
     Eigenvalues ---    0.06081   0.06151   0.07146   0.07353   0.11621
     Eigenvalues ---    0.11790   0.11956   0.13640   0.14043   0.14589
     Eigenvalues ---    0.14638   0.16891   0.17086   0.17380   0.18621
     Eigenvalues ---    0.20142   0.22170   0.23396   0.24307   0.25568
     Eigenvalues ---    0.27367   0.28769   0.28858   0.29664   0.31364
     Eigenvalues ---    0.32756   0.32886   0.33090   0.33744   0.34155
     Eigenvalues ---    0.34929   0.35137   0.35287   0.35610   0.35743
     Eigenvalues ---    0.35863   0.36745   0.36941   0.38304   0.41936
     Eigenvalues ---    0.43387   0.44739   0.47119   0.50622   0.53578
     Eigenvalues ---    0.57870   0.76211   1.23989   2.44235
 Eigenvectors required to have negative eigenvalues:
                          D7        D12       D19       D17       A3
   1                    0.45118  -0.44792   0.24639  -0.24254   0.22772
                          A6        D10       D13       R12       R7
   1                    0.22747  -0.22564   0.22553  -0.20210  -0.19864
 RFO step:  Lambda0=1.924834042D-10 Lambda= 0.00000000D+00.
 Linear search not attempted -- option 19 set.
 Variable       Old X    -DE/DX   Delta X   Delta X   Delta X     New X
                                 (Linear)    (Quad)   (Total)
    R2        2.90869  -0.00001   0.00000  -0.00002  -0.00002   2.90867
    R3        2.87984  -0.00000   0.00000  -0.00000  -0.00000   2.87984
    R4        2.06306   0.00000   0.00000   0.00000   0.00000   2.06307
    R5        2.06311  -0.00000   0.00000   0.00000   0.00000   2.06311
    R6        2.87930  -0.00000   0.00000  -0.00001  -0.00001   2.87929
    R7        2.62984   0.00000   0.00000  -0.00000  -0.00000   2.62984
    R8        2.06170   0.00000   0.00000   0.00000   0.00000   2.06170
    R9        2.06219  -0.00000   0.00000  -0.00000  -0.00000   2.06218
   R10        2.04832   0.00000   0.00000   0.00000   0.00000   2.04832
   R11        2.60330   0.00000   0.00000   0.00000   0.00000   2.60330
   R12        2.62914   0.00000   0.00000  -0.00000  -0.00000   2.62914
   R13        2.04788   0.00000   0.00000   0.00000   0.00000   2.04788
   R14        2.05401   0.00000   0.00000   0.00000   0.00000   2.05401
   R15        2.60077   0.00000   0.00000   0.00001   0.00001   2.60077
   R16        2.05283   0.00000   0.00000   0.00000   0.00000   2.05283
   R17        2.04074   0.00000   0.00000   0.00000   0.00000   2.04074
   R18        2.04434   0.00000   0.00000  -0.00000  -0.00000   2.04434
   R19        2.04089   0.00000   0.00000  -0.00000  -0.00000   2.04089
   R20        2.04392   0.00000   0.00000   0.00000   0.00000   2.04392
    A3        1.78622  -0.00001   0.00000   0.00003   0.00003   1.78625
    A4        1.96495  -0.00000   0.00000  -0.00002  -0.00002   1.96493
    A5        1.96762  -0.00000   0.00000  -0.00000  -0.00000   1.96762
    A6        1.78426  -0.00002   0.00000  -0.00000  -0.00000   1.78426
    A7        2.16251  -0.00000   0.00000   0.00001   0.00001   2.16252
    A8        1.96563  -0.00000   0.00000   0.00002   0.00002   1.96565
    A9        1.97058  -0.00000   0.00000  -0.00003  -0.00003   1.97055
   A10        2.03261  -0.00000   0.00000   0.00001   0.00001   2.03262
   A11        2.17855  -0.00000   0.00000   0.00001   0.00001   2.17857
   A12        2.16458   0.00000   0.00000   0.00001   0.00001   2.16459
   A13        2.03188  -0.00000   0.00000   0.00000   0.00000   2.03189
   A14        2.02890  -0.00000   0.00000  -0.00001  -0.00001   2.02890
   A15        2.17660   0.00000   0.00000   0.00002   0.00002   2.17662
   A16        2.03189  -0.00000   0.00000  -0.00002  -0.00002   2.03187
   A17        2.11739   0.00000   0.00000   0.00001   0.00001   2.11740
   A18        2.09695   0.00000   0.00000   0.00001   0.00001   2.09696
   A19        2.11583   0.00000   0.00000   0.00002   0.00002   2.11585
   A20        2.09655  -0.00000   0.00000  -0.00001  -0.00001   2.09654
    D4        2.07761   0.00000   0.00000  -0.00001  -0.00001   2.07760
    D5       -2.09580   0.00000   0.00000  -0.00002  -0.00002  -2.09582
    D6        0.00955  -0.00000   0.00000  -0.00019  -0.00019   0.00935
    D7       -1.75369   0.00000   0.00000   0.00019   0.00019  -1.75350
    D8       -2.07307  -0.00000   0.00000  -0.00004  -0.00004  -2.07311
    D9        2.09859  -0.00000   0.00000  -0.00003  -0.00003   2.09856
   D10       -2.81865  -0.00000   0.00000  -0.00004  -0.00004  -2.81869
   D11        0.33052  -0.00000   0.00000  -0.00002  -0.00002   0.33050
   D12        1.73746  -0.00000   0.00000   0.00009   0.00009   1.73755
   D13        2.81469   0.00000   0.00000   0.00009   0.00009   2.81477
   D14        2.87194   0.00000   0.00000   0.00005   0.00005   2.87198
   D15       -0.32526   0.00000   0.00000   0.00013   0.00013  -0.32513
   D16       -2.89219  -0.00000   0.00000  -0.00006  -0.00006  -2.89225
   D17       -0.45284  -0.00000   0.00000   0.00008   0.00008  -0.45275
   D18       -2.78704  -0.00000   0.00000  -0.00007  -0.00007  -2.78710
   D19        0.44318   0.00000   0.00000  -0.00001  -0.00001   0.44316
   D20        2.77932   0.00000   0.00000   0.00005   0.00005   2.77936
         Item               Value     Threshold  Converged?
 Maximum Force            0.000018     0.000450     YES
 RMS     Force            0.000004     0.000300     YES
 Maximum Displacement     0.000194     0.001800     YES
 RMS     Displacement     0.000050     0.001200     YES
 Predicted change in Energy=-9.976747D-10
 Optimization completed.
    -- Stationary point found.
                       ----------------------------
                       !   Optimized Parameters   !
                       ! (Angstroms and Degrees)  !
 ----------------------                            ----------------------
 !      Name          Value   Derivative information (Atomic Units)     !
 ------------------------------------------------------------------------
 !       R2          1.5392   -DE/DX =    0.0                           !
 !       R3          1.5239   -DE/DX =    0.0                           !
 !       R4          1.0917   -DE/DX =    0.0                           !
 !       R5          1.0918   -DE/DX =    0.0                           !
 !       R6          1.5237   -DE/DX =    0.0                           !
 !       R7          1.3917   -DE/DX =    0.0                           !
 !       R8          1.091    -DE/DX =    0.0                           !
 !       R9          1.0913   -DE/DX =    0.0                           !
 !       R10         1.0839   -DE/DX =    0.0                           !
 !       R11         1.3776   -DE/DX =    0.0                           !
 !       R12         1.3913   -DE/DX =    0.0                           !
 !       R13         1.0837   -DE/DX =    0.0                           !
 !       R14         1.0869   -DE/DX =    0.0                           !
 !       R15         1.3763   -DE/DX =    0.0                           !
 !       R16         1.0863   -DE/DX =    0.0                           !
 !       R17         1.0799   -DE/DX =    0.0                           !
 !       R18         1.0818   -DE/DX =    0.0                           !
 !       R19         1.08     -DE/DX =    0.0                           !
 !       R20         1.0816   -DE/DX =    0.0                           !
 !       A3        102.3429   -DE/DX =    0.0                           !
 !       A4        112.5832   -DE/DX =    0.0                           !
 !       A5        112.7362   -DE/DX =    0.0                           !
 !       A6        102.2307   -DE/DX =    0.0                           !
 !       A7        123.9029   -DE/DX =    0.0                           !
 !       A8        112.6222   -DE/DX =    0.0                           !
 !       A9        112.9057   -DE/DX =    0.0                           !
 !       A10       116.4603   -DE/DX =    0.0                           !
 !       A11       124.8219   -DE/DX =    0.0                           !
 !       A12       124.0212   -DE/DX =    0.0                           !
 !       A13       116.4184   -DE/DX =    0.0                           !
 !       A14       116.2477   -DE/DX =    0.0                           !
 !       A15       124.7101   -DE/DX =    0.0                           !
 !       A16       116.4185   -DE/DX =    0.0                           !
 !       A17       121.3175   -DE/DX =    0.0                           !
 !       A18       120.1466   -DE/DX =    0.0                           !
 !       A19       121.2282   -DE/DX =    0.0                           !
 !       A20       120.1233   -DE/DX =    0.0                           !
 !       D4        119.0385   -DE/DX =    0.0                           !
 !       D5       -120.0806   -DE/DX =    0.0                           !
 !       D6          0.5471   -DE/DX =    0.0                           !
 !       D7       -100.4791   -DE/DX =    0.0                           !
 !       D8       -118.7783   -DE/DX =    0.0                           !
 !       D9        120.2404   -DE/DX =    0.0                           !
 !       D10      -161.4968   -DE/DX =    0.0                           !
 !       D11        18.9376   -DE/DX =    0.0                           !
 !       D12        99.549    -DE/DX =    0.0                           !
 !       D13       161.2698   -DE/DX =    0.0                           !
 !       D14       164.5498   -DE/DX =    0.0                           !
 !       D15       -18.6358   -DE/DX =    0.0                           !
 !       D16      -165.7105   -DE/DX =    0.0                           !
 !       D17       -25.9456   -DE/DX =    0.0                           !
 !       D18      -159.6855   -DE/DX =    0.0                           !
 !       D19        25.3921   -DE/DX =    0.0                           !
 !       D20       159.2431   -DE/DX =    0.0                           !
 ------------------------------------------------------------------------
 GradGradGradGradGradGradGradGradGradGradGradGradGradGradGradGradGradGrad

 ---------------------------------------------------------------------------------------------------
                            Z-MATRIX (ANGSTROMS AND DEGREES)
   CD    Cent   Atom    N1       Length/X        N2       Alpha/Y        N3        Beta/Z          J
 ---------------------------------------------------------------------------------------------------
      1      1  C 
      2      2  C        1   1.539210(     1)
      3      3  C        1   1.523946(     2)      2  102.343(    20)
      4      4  H        1   1.091726(     3)      2  112.583(    21)      3  119.038(    38)      0
      5      5  H        1   1.091751(     4)      2  112.736(    22)      3 -120.081(    39)      0
      6      6  C        2   1.523661(     5)      1  102.231(    23)      3    0.547(    40)      0
      7      7  C        3   1.391650(     6)      1  123.903(    24)      2 -100.479(    41)      0
      8      8  H        2   1.091002(     7)      1  112.622(    25)      6 -118.778(    42)      0
      9      9  H        2   1.091261(     8)      1  112.906(    26)      6  120.240(    43)      0
     10     10  H        3   1.083924(     9)      1  116.460(    27)      7 -161.497(    44)      0
     11     11  C        7   1.377608(    10)      3  124.822(    28)      1   18.938(    45)      0
     12     12  C        6   1.391282(    11)      2  124.021(    29)      1   99.549(    46)      0
     13     13  H        6   1.083691(    12)      2  116.418(    30)     12  161.270(    47)      0
     14     14  H        7   1.086936(    13)      3  116.248(    31)     11  164.550(    48)      0
     15     15  C       12   1.376268(    14)      6  124.710(    32)      2  -18.636(    49)      0
     16     16  H       12   1.086309(    15)      6  116.418(    33)     15 -165.711(    50)      0
     17     17  H       11   1.079911(    16)      7  121.318(    34)      3  -25.946(    51)      0
     18     18  H       11   1.081819(    17)      7  120.147(    35)     17 -159.685(    52)      0
     19     19  H       15   1.079995(    18)     12  121.228(    36)      6   25.392(    53)      0
     20     20  H       15   1.081595(    19)     12  120.123(    37)     19  159.243(    54)      0
 ---------------------------------------------------------------------------------------------------
                         Z-Matrix orientation:                         
 ---------------------------------------------------------------------
 Center     Atomic      Atomic             Coordinates (Angstroms)
 Number     Number       Type             X           Y           Z
 ---------------------------------------------------------------------
      1          6           0        0.000000    0.000000    0.000000
      2          6           0        0.000000    0.000000    1.539210
      3          6           0        1.488722    0.000000   -0.325761
      4          1           0       -0.489288   -0.881302   -0.419249
      5          1           0       -0.504684    0.871306   -0.421949
      6          6           0        1.489010    0.014218    1.861995
      7          6           0        2.202119    1.135782   -0.696913
      8          1           0       -0.476371   -0.887268    1.958867
      9          1           0       -0.514522    0.863549    1.963947
     10          1           0        1.931575   -0.960876   -0.561324
     11          6           0        1.792010    2.431273   -0.470377
     12          6           0        2.198346    1.158203    2.213855
     13          1           0        1.936547   -0.939639    2.115478
     14          1           0        3.246129    0.983609   -0.958283
     15          6           0        1.777798    2.446250    1.972636
     16          1           0        3.239401    1.015720    2.489483
     17          1           0        0.745791    2.679447   -0.370160
     18          1           0        2.447449    3.258217   -0.708907
     19          1           0        0.729213    2.682457    1.867444
     20          1           0        2.422651    3.281349    2.210591
 ---------------------------------------------------------------------
                    Distance matrix (angstroms):
                    1          2          3          4          5
     1  C    0.000000
     2  C    1.539210   0.000000
     3  C    1.523946   2.386296   0.000000
     4  H    1.091726   2.202648   2.167476   0.000000
     5  H    1.091751   2.204546   2.177634   1.752677   0.000000
     6  C    2.384193   1.523661   2.187801   3.149554   3.150526
     7  C    2.573911   3.337600   1.391650   3.374818   2.733557
     8  H    2.202574   1.091002   3.141394   2.378159   2.960012
     9  H    2.206249   1.091261   3.162509   2.953771   2.385928
    10  H    2.229204   3.011064   1.083924   2.426333   3.051503
    11  C    3.056737   3.627785   2.454381   4.022448   2.776805
    12  C    3.327960   2.574744   2.880043   4.279743   3.786310
    13  H    3.018010   2.228278   2.653887   3.508977   3.959503
    14  H    3.524649   4.212162   2.110936   4.209726   3.790629
    15  C    3.610540   3.054924   3.369025   4.683310   3.663906
    16  H    4.209862   3.525398   3.467299   5.095345   4.745047
    17  H    2.805826   3.373623   2.780891   3.769186   2.199033
    18  H    4.136246   4.654032   3.417885   5.083694   3.807201
    19  H    3.348832   2.799119   3.547193   4.406142   3.169241
    20  H    4.639310   4.133672   4.251182   5.720412   4.616044
                    6          7          8          9         10
     6  C    0.000000
     7  C    2.883477   0.000000
     8  H    2.164436   4.280211   0.000000
     9  H    2.178508   3.812404   1.751240   0.000000
    10  H    2.649367   2.118385   3.486400   3.960923   0.000000
    11  C    3.372524   1.377608   4.696754   3.701862   3.396237
    12  C    1.391282   2.910857   3.376845   2.740243   3.501897
    13  H    1.083691   3.505345   2.418562   3.046669   2.676890
    14  H    3.461380   1.086936   5.085957   4.764067   2.380473
    15  C    2.451616   3.003975   4.024154   2.785632   4.248895
    16  H    2.112018   3.353132   4.208311   3.793585   3.863258
    17  H    3.555043   2.147221   4.431648   3.214643   3.833351
    18  H    4.248725   2.136600   5.731561   4.653155   4.253076
    19  H    2.774315   3.337301   3.768916   2.205587   4.540756
    20  H    3.415750   3.620175   5.083804   3.812292   5.091281
                   11         12         13         14         15
    11  C    0.000000
    12  C    2.998486   0.000000
    13  H    4.250951   2.116402   0.000000
    14  H    2.109087   3.345264   3.855113   0.000000
    15  C    2.443100   1.376268   3.392617   3.589652   0.000000
    16  H    3.586015   1.086309   2.379230   3.447922   2.109463
    17  H    1.079911   3.331851   4.549075   3.077897   2.570624
    18  H    1.081819   3.607582   5.085289   2.423617   2.880693
    19  H    2.580317   2.145158   3.826063   4.147974   1.079995
    20  H    2.882347   2.134964   4.249951   3.999936   1.081595
                   16         17         18         19         20
    16  H    0.000000
    17  H    4.142902   0.000000
    18  H    3.985684   1.829033   0.000000
    19  H    3.076685   2.237667   3.149828   0.000000
    20  H    2.424446   3.135987   2.919694   1.828703   0.000000
 Symmetry turned off by external request.
 Stoichiometry    C8H12
 Framework group  C1[X(C8H12)]
 Deg. of freedom    54
 Full point group                 C1      NOp   1
 Rotational constants (GHZ):           2.4908196           2.3098129           1.5826443
 1\1\GINC-BHC0019\FTS\RB3LYP\def2TZVP\C8H12\DHANAWAY\10-Jun-2022\1\\# O
 pt=(TS, CalcFC, noeigentest, Z-matrix, MaxStep=10) Field=read NoSymm B
 3LYP/Def2TZVP freq=noraman pop=none\\ts_zmat_initalOpt\\0,1\C\C,1,R2\C
 ,1,R3,2,A3\H,1,R4,2,A4,3,D4,0\H,1,R5,2,A5,3,D5,0\C,2,R6,1,A6,3,D6,0\C,
 3,R7,1,A7,2,D7,0\H,2,R8,1,A8,6,D8,0\H,2,R9,1,A9,6,D9,0\H,3,R10,1,A10,7
 ,D10,0\C,7,R11,3,A11,1,D11,0\C,6,R12,2,A12,1,D12,0\H,6,R13,2,A13,12,D1
 3,0\H,7,R14,3,A14,11,D14,0\C,12,R15,6,A15,2,D15,0\H,12,R16,6,A16,15,D1
 6,0\H,11,R17,7,A17,3,D17,0\H,11,R18,7,A18,17,D18,0\H,15,R19,12,A19,6,D
 19,0\H,15,R20,12,A20,19,D20,0\\R2=1.53920988\R3=1.52394625\R4=1.091726
 05\R5=1.09175103\R6=1.52366092\R7=1.39165043\R8=1.09100244\R9=1.091261
 36\R10=1.08392435\R11=1.37760781\R12=1.39128203\R13=1.08369128\R14=1.0
 8693586\R15=1.37626788\R16=1.08630949\R17=1.07991105\R18=1.0818194\R19
 =1.07999495\R20=1.08159501\A3=102.3428568\A4=112.58318877\A5=112.73617
 032\A6=102.23068379\A7=123.90293811\A8=112.62218837\A9=112.90574066\A1
 0=116.46025338\A11=124.82194485\A12=124.0211521\A13=116.41837074\A14=1
 16.24767102\A15=124.71010749\A16=116.41849666\A17=121.31750648\A18=120
 .14660135\A19=121.22817562\A20=120.12332464\D4=119.03846948\D5=-120.08
 059037\D6=0.5470853\D7=-100.47914207\D8=-118.77827381\D9=120.24035145\
 D10=-161.49681477\D11=18.93757007\D12=99.5490037\D13=161.26979829\D14=
 164.54984032\D15=-18.63578137\D16=-165.71054257\D17=-25.94556537\D18=-
 159.68545864\D19=25.39210037\D20=159.24308036\\Version=ES64L-G16RevA.0
 3\HF=-312.0802935\RMSD=7.479e-09\RMSF=2.231e-05\Dipole=-0.1273215,-0.2
 386651,0.273347\PG=C01 [X(C8H12)]\\@


 TERRY FORSTER, PORTLY ATLANTA BRAVES RELIEVER,
 ANNOUNCING THAT HE WAS GOING TO A FAT FARM:
 "A WAIST IS A TERRIBLE THING TO MIND."
 Job cpu time:       0 days  2 hours 18 minutes 49.4 seconds.
 Elapsed time:       0 days  0 hours 12 minutes  7.3 seconds.
 File lengths (MBytes):  RWF=    163 Int=      0 D2E=      0 Chk=     32 Scr=      1
 Normal termination of Gaussian 16 at Fri Jun 10 02:47:26 2022.
 Link1:  Proceeding to internal job step number  2.
 --------------------------------------------------------------------
 #N Geom=AllCheck Guess=TCheck SCRF=Check GenChk RB3LYP/def2TZVP Freq
 --------------------------------------------------------------------
 1/5=1,8=10,10=4,11=1,29=7,30=1,38=1,40=1/1,3;
 2/12=2,15=1,40=1/2;
 3/5=44,7=101,11=2,14=-4,25=1,30=1,70=2,71=2,74=-5,116=1,140=1/1,2,3;
 4/5=101/1;
 5/5=2,38=6,98=1/2;
 8/6=4,10=90,11=11/1;
 11/6=1,8=1,9=11,15=111,16=1,31=1/1,2,10;
 10/6=1,31=1/2;
 7/8=1,10=1,25=1,30=1/1,2,3,16;
 1/5=1,8=10,10=4,11=1,30=1/3;
 99//99;
 Structure from the checkpoint file:  "checkpoint.chk"
 -----------------
 ts_zmat_initalOpt
 -----------------
 Charge =  0 Multiplicity = 1
 Z-Matrix found in chk file.
 C
 C,1,R2
 C,1,R3,2,A3
 H,1,R4,2,A4,3,D4,0
 H,1,R5,2,A5,3,D5,0
 C,2,R6,1,A6,3,D6,0
 C,3,R7,1,A7,2,D7,0
 H,2,R8,1,A8,6,D8,0
 H,2,R9,1,A9,6,D9,0
 H,3,R10,1,A10,7,D10,0
 C,7,R11,3,A11,1,D11,0
 C,6,R12,2,A12,1,D12,0
 H,6,R13,2,A13,12,D13,0
 H,7,R14,3,A14,11,D14,0
 C,12,R15,6,A15,2,D15,0
 H,12,R16,6,A16,15,D16,0
 H,11,R17,7,A17,3,D17,0
 H,11,R18,7,A18,17,D18,0
 H,15,R19,12,A19,6,D19,0
 H,15,R20,12,A20,19,D20,0
      Variables:
 R2=1.53920988
 R3=1.52394625
 R4=1.09172605
 R5=1.09175103
 R6=1.52366092
 R7=1.39165043
 R8=1.09100244
 R9=1.09126136
 R10=1.08392435
 R11=1.37760781
 R12=1.39128203
 R13=1.08369128
 R14=1.08693586
 R15=1.37626788
 R16=1.08630949
 R17=1.07991105
 R18=1.0818194
 R19=1.07999495
 R20=1.08159501
 A3=102.3428568
 A4=112.58318877
 A5=112.73617032
 A6=102.23068379
 A7=123.90293811
 A8=112.62218837
 A9=112.90574066
 A10=116.46025338
 A11=124.82194485
 A12=124.0211521
 A13=116.41837074
 A14=116.24767102
 A15=124.71010749
 A16=116.41849666
 A17=121.31750648
 A18=120.14660135
 A19=121.22817562
 A20=120.12332464
 D4=119.03846948
 D5=-120.08059037
 D6=0.5470853
 D7=-100.47914207
 D8=-118.77827381
 D9=120.24035145
 D10=-161.49681477
 D11=18.93757007
 D12=99.5490037
 D13=161.26979829
 D14=164.54984032
 D15=-18.63578137
 D16=-165.71054257
 D17=-25.94556537
 D18=-159.68545864
 D19=25.39210037
 D20=159.24308036
 Recover connectivity data from disk.

 GradGradGradGradGradGradGradGradGradGradGradGradGradGradGradGradGradGrad
 Berny optimization.
 Initialization pass.
                       ----------------------------
                       !    Initial Parameters    !
                       ! (Angstroms and Degrees)  !
 ----------------------                            ----------------------
 !      Name          Value   Derivative information (Atomic Units)     !
 ------------------------------------------------------------------------
 !       R2          1.5392   calculate D2E/DX2 analytically            !
 !       R3          1.5239   calculate D2E/DX2 analytically            !
 !       R4          1.0917   calculate D2E/DX2 analytically            !
 !       R5          1.0918   calculate D2E/DX2 analytically            !
 !       R6          1.5237   calculate D2E/DX2 analytically            !
 !       R7          1.3917   calculate D2E/DX2 analytically            !
 !       R8          1.091    calculate D2E/DX2 analytically            !
 !       R9          1.0913   calculate D2E/DX2 analytically            !
 !       R10         1.0839   calculate D2E/DX2 analytically            !
 !       R11         1.3776   calculate D2E/DX2 analytically            !
 !       R12         1.3913   calculate D2E/DX2 analytically            !
 !       R13         1.0837   calculate D2E/DX2 analytically            !
 !       R14         1.0869   calculate D2E/DX2 analytically            !
 !       R15         1.3763   calculate D2E/DX2 analytically            !
 !       R16         1.0863   calculate D2E/DX2 analytically            !
 !       R17         1.0799   calculate D2E/DX2 analytically            !
 !       R18         1.0818   calculate D2E/DX2 analytically            !
 !       R19         1.08     calculate D2E/DX2 analytically            !
 !       R20         1.0816   calculate D2E/DX2 analytically            !
 !       A3        102.3429   calculate D2E/DX2 analytically            !
 !       A4        112.5832   calculate D2E/DX2 analytically            !
 !       A5        112.7362   calculate D2E/DX2 analytically            !
 !       A6        102.2307   calculate D2E/DX2 analytically            !
 !       A7        123.9029   calculate D2E/DX2 analytically            !
 !       A8        112.6222   calculate D2E/DX2 analytically            !
 !       A9        112.9057   calculate D2E/DX2 analytically            !
 !       A10       116.4603   calculate D2E/DX2 analytically            !
 !       A11       124.8219   calculate D2E/DX2 analytically            !
 !       A12       124.0212   calculate D2E/DX2 analytically            !
 !       A13       116.4184   calculate D2E/DX2 analytically            !
 !       A14       116.2477   calculate D2E/DX2 analytically            !
 !       A15       124.7101   calculate D2E/DX2 analytically            !
 !       A16       116.4185   calculate D2E/DX2 analytically            !
 !       A17       121.3175   calculate D2E/DX2 analytically            !
 !       A18       120.1466   calculate D2E/DX2 analytically            !
 !       A19       121.2282   calculate D2E/DX2 analytically            !
 !       A20       120.1233   calculate D2E/DX2 analytically            !
 !       D4        119.0385   calculate D2E/DX2 analytically            !
 !       D5       -120.0806   calculate D2E/DX2 analytically            !
 !       D6          0.5471   calculate D2E/DX2 analytically            !
 !       D7       -100.4791   calculate D2E/DX2 analytically            !
 !       D8       -118.7783   calculate D2E/DX2 analytically            !
 !       D9        120.2404   calculate D2E/DX2 analytically            !
 !       D10      -161.4968   calculate D2E/DX2 analytically            !
 !       D11        18.9376   calculate D2E/DX2 analytically            !
 !       D12        99.549    calculate D2E/DX2 analytically            !
 !       D13       161.2698   calculate D2E/DX2 analytically            !
 !       D14       164.5498   calculate D2E/DX2 analytically            !
 !       D15       -18.6358   calculate D2E/DX2 analytically            !
 !       D16      -165.7105   calculate D2E/DX2 analytically            !
 !       D17       -25.9456   calculate D2E/DX2 analytically            !
 !       D18      -159.6855   calculate D2E/DX2 analytically            !
 !       D19        25.3921   calculate D2E/DX2 analytically            !
 !       D20       159.2431   calculate D2E/DX2 analytically            !
 ------------------------------------------------------------------------
 Trust Radius=1.00D-01 FncErr=1.00D-07 GrdErr=1.00D-07 EigMax=2.50D+02 EigMin=1.00D-04
 Number of steps in this run=      2 maximum allowed number of steps=      2.
 Search for a saddle point of order  1.
 GradGradGradGradGradGradGradGradGradGradGradGradGradGradGradGradGradGrad

                          Input orientation:                          
 ---------------------------------------------------------------------
 Center     Atomic      Atomic             Coordinates (Angstroms)
 Number     Number       Type             X           Y           Z
 ---------------------------------------------------------------------
      1          6           0        0.000000    0.000000    0.000000
      2          6           0        0.000000    0.000000    1.539210
      3          6           0        1.488722    0.000000   -0.325761
      4          1           0       -0.489288   -0.881302   -0.419249
      5          1           0       -0.504684    0.871306   -0.421949
      6          6           0        1.489010    0.014218    1.861995
      7          6           0        2.202119    1.135782   -0.696913
      8          1           0       -0.476371   -0.887268    1.958867
      9          1           0       -0.514522    0.863549    1.963947
     10          1           0        1.931575   -0.960876   -0.561324
     11          6           0        1.792010    2.431273   -0.470377
     12          6           0        2.198346    1.158203    2.213855
     13          1           0        1.936547   -0.939639    2.115478
     14          1           0        3.246129    0.983609   -0.958283
     15          6           0        1.777798    2.446250    1.972636
     16          1           0        3.239401    1.015720    2.489483
     17          1           0        0.745791    2.679447   -0.370160
     18          1           0        2.447449    3.258217   -0.708907
     19          1           0        0.729213    2.682457    1.867444
     20          1           0        2.422651    3.281349    2.210591
 ---------------------------------------------------------------------
                    Distance matrix (angstroms):
                    1          2          3          4          5
     1  C    0.000000
     2  C    1.539210   0.000000
     3  C    1.523946   2.386296   0.000000
     4  H    1.091726   2.202648   2.167476   0.000000
     5  H    1.091751   2.204546   2.177634   1.752677   0.000000
     6  C    2.384193   1.523661   2.187801   3.149554   3.150526
     7  C    2.573911   3.337600   1.391650   3.374818   2.733557
     8  H    2.202574   1.091002   3.141394   2.378159   2.960012
     9  H    2.206249   1.091261   3.162509   2.953771   2.385928
    10  H    2.229204   3.011064   1.083924   2.426333   3.051503
    11  C    3.056737   3.627785   2.454381   4.022448   2.776805
    12  C    3.327960   2.574744   2.880043   4.279743   3.786310
    13  H    3.018010   2.228278   2.653887   3.508977   3.959503
    14  H    3.524649   4.212162   2.110936   4.209726   3.790629
    15  C    3.610540   3.054924   3.369025   4.683310   3.663906
    16  H    4.209862   3.525398   3.467299   5.095345   4.745047
    17  H    2.805826   3.373623   2.780891   3.769186   2.199033
    18  H    4.136246   4.654032   3.417885   5.083694   3.807201
    19  H    3.348832   2.799119   3.547193   4.406142   3.169241
    20  H    4.639310   4.133672   4.251182   5.720412   4.616044
                    6          7          8          9         10
     6  C    0.000000
     7  C    2.883477   0.000000
     8  H    2.164436   4.280211   0.000000
     9  H    2.178508   3.812404   1.751240   0.000000
    10  H    2.649367   2.118385   3.486400   3.960923   0.000000
    11  C    3.372524   1.377608   4.696754   3.701862   3.396237
    12  C    1.391282   2.910857   3.376845   2.740243   3.501897
    13  H    1.083691   3.505345   2.418562   3.046669   2.676890
    14  H    3.461380   1.086936   5.085957   4.764067   2.380473
    15  C    2.451616   3.003975   4.024154   2.785632   4.248895
    16  H    2.112018   3.353132   4.208311   3.793585   3.863258
    17  H    3.555043   2.147221   4.431648   3.214643   3.833351
    18  H    4.248725   2.136600   5.731561   4.653155   4.253076
    19  H    2.774315   3.337301   3.768916   2.205587   4.540756
[...]
 -0.00022855,0.00086607,0.00020777,0.00147190,0.00130822,-0.00050565,0.
 00017840,0.00000091,0.00012141,0.10021802,0.24106078,0.01126895,0.0258
 0656,-0.01267762,0.04238664,0.08033892,-0.08278817,-0.00022214,0.00048
 881,-0.00303844,-0.00024395,0.00003289,0.00250185,0.00099854,0.0002930
 7,-0.00409772,-0.00369371,-0.00924885,0.00327749,0.00094525,-0.0007047
 8,0.00014319,-0.04409105,-0.08708768,0.09127622,0.00094564,-0.00277967
 ,-0.00127532,-0.10307513,0.09464481,0.04573718,-0.00123925,-0.00135044
 ,0.00158540,-0.00014286,-0.00026164,-0.00105045,0.00105374,-0.00008603
 ,0.00016428,-0.01534526,0.02687438,0.00794282,0.00020298,0.00099436,-0
 .00010547,0.00771457,-0.01127286,-0.00596605,0.11153909,-0.00229638,0.
 00086852,0.00217103,0.09536660,-0.21496791,-0.07925056,0.00037109,-0.0
 0001134,0.00100653,0.00019610,0.00082744,-0.00027787,-0.00008672,0.001
 65420,0.00000171,0.00176009,0.00150984,0.00167247,-0.00016045,-0.00001
 669,-0.00009424,0.01254387,-0.02139807,-0.00988850,-0.10496207,0.23188
 076,0.01254911,-0.02524656,-0.01249399,0.04587273,-0.07870282,-0.08339
 389,0.00006780,0.00083853,-0.00344309,0.00093891,-0.00029131,-0.003984
 10,-0.00013840,-0.00001610,0.00258788,-0.00338294,0.00938012,0.0032299
 8,0.00050062,-0.00150515,-0.00021100,-0.00643698,0.00963053,0.00538324
 ,-0.04834397,0.08535354,0.09175568,-0.01061654,0.02495905,0.00480281,-
 0.00149227,0.00012578,-0.00043799,-0.09937614,0.10110471,0.03259639,0.
 00173424,-0.00009776,-0.00053098,-0.00473281,0.00012607,0.00207320,-0.
 00028910,-0.00300442,-0.00265438,0.00795550,-0.01374623,-0.00412705,-0
 .00001339,0.00001587,0.00048583,0.00009780,-0.00007386,0.00044293,0.10
 436732,-0.00276043,0.00273718,0.00108396,0.00000674,-0.00010907,-0.000
 04801,0.09937622,-0.27285820,-0.05208761,0.00038455,0.00131381,-0.0000
 2415,-0.00062925,0.00075256,-0.00004115,0.00016983,0.00018742,0.000651
 36,0.01257657,-0.02131625,-0.00760890,0.00001987,0.00002251,-0.0000104
 6,-0.00001641,-0.00000754,-0.00002239,-0.10498402,0.29043353,0.0011567
 4,-0.00339759,0.00099122,0.00012990,0.00100097,0.00001891,0.03186291,-
 0.06308036,-0.04114386,0.00028103,0.00053117,0.00124049,-0.00067015,0.
 00100497,-0.00085350,0.00055701,-0.00842399,-0.00718150,-0.00327979,0.
 01731958,0.00479333,0.00033872,0.00002329,-0.00022027,-0.00006692,-0.0
 0009956,0.00007930,-0.03396864,0.05590964,0.04171475,0.00167485,0.0006
 8450,-0.00221522,0.00300473,-0.00000266,0.00135978,0.01611675,-0.00829
 615,-0.01374738,0.00020200,0.00019606,0.00023189,-0.00036468,-0.001247
 46,-0.00037003,0.00078833,0.00151418,0.00902406,-0.14127457,0.07359338
 ,0.02920161,0.00027518,0.00002349,-0.00023869,0.00009630,0.00007671,-0
 .00000839,-0.00020160,-0.00433753,0.00398557,0.62860037,-0.00364532,-0
 .00020713,-0.00046606,-0.00462191,0.00088533,-0.00216096,-0.00682081,-
 0.06216281,0.03547074,0.00010453,-0.00032659,-0.00017157,-0.00075312,-
 0.00022363,-0.00006370,0.00113434,-0.01669705,-0.03070987,0.10234966,-
 0.33227494,-0.04619340,-0.00064706,0.00010762,0.00003593,-0.00089816,-
 0.00004369,0.00045650,-0.00357518,-0.00195322,-0.00184464,-0.01974168,
 0.69979410,-0.00384570,0.00097988,-0.00165848,-0.00413851,0.00044168,-
 0.00151097,-0.01111136,-0.01792429,0.03743395,-0.00066928,0.00026390,-
 0.00015340,-0.00119851,-0.00038467,-0.00042956,-0.00721200,-0.02164122
 ,-0.03441224,0.03374255,0.00254713,-0.05504605,-0.00043023,0.00001779,
 0.00016402,-0.00036348,-0.00022365,0.00056935,0.00106305,0.00191157,0.
 00140846,-0.10101518,-0.02994285,0.08957865,-0.00177083,-0.00092232,0.
 00027660,-0.01417445,-0.02498455,-0.01149327,-0.00186954,0.00518481,-0
 .00562157,0.00030185,0.00015781,-0.00097967,0.00017894,-0.00012828,-0.
 00048475,-0.17825686,-0.11804620,-0.04227348,0.00478168,-0.00630052,0.
 00378969,-0.00424702,-0.00009534,-0.00142962,0.00208264,-0.00104345,-0
 .00003468,0.00084443,-0.00012254,0.00144509,-0.00154446,0.00143937,0.0
 0625776,0.62781667,0.01151683,-0.00057865,-0.00409493,0.00398576,0.007
 91513,0.00094168,-0.00144258,0.02252331,-0.06789556,0.00131667,0.00002
 012,0.00069591,0.00101729,-0.00006457,0.00136958,-0.09716984,-0.250082
 59,0.00916540,-0.00669114,-0.05561041,0.00211217,0.00359144,0.00014404
 ,-0.00028186,0.00177969,-0.00054547,-0.00079349,0.00170530,-0.00005486
 ,0.00437550,-0.00672754,0.02565787,0.05224562,-0.01671241,0.68462743,0
 .00075823,0.00070550,-0.00091008,-0.00161792,-0.00333747,0.00074885,-0
 .00197472,-0.00053908,-0.01731199,0.00021258,-0.00010002,0.00016046,0.
 00007919,0.00007124,-0.00021581,-0.04876179,-0.05300094,-0.06154408,-0
 .00346779,-0.00183047,-0.01293859,0.00058928,0.00020985,-0.00093684,-0
 .00022623,0.00044532,0.00098834,-0.00014233,0.00003806,-0.00025506,-0.
 00097411,-0.00023360,-0.01039482,0.15182230,-0.00407888,0.20515709,-0.
 00159497,0.00013258,0.00038687,-0.01086752,0.02461956,-0.00532804,-0.0
 0029611,-0.00296823,0.00274068,-0.00001542,0.00001050,-0.00050190,0.00
 009087,-0.00005753,-0.00045028,-0.10076712,0.10180224,-0.03438942,0.00
 087421,0.00166457,0.00010463,0.00171816,-0.00002604,0.00045026,-0.0046
 0277,0.00005608,-0.00206987,0.00039148,-0.00004725,-0.00070068,-0.0000
 1121,-0.00121892,-0.00118211,0.00810682,-0.01365530,0.00415731,0.10587
 624,-0.00001548,-0.00011049,0.00004145,-0.00291828,0.00307798,-0.00113
 976,0.00016138,0.00041267,-0.00079355,0.00000540,0.00001652,-0.0000015
 8,-0.00001891,0.00000162,0.00001462,0.09999608,-0.27073867,0.05643368,
 -0.00018001,-0.00021192,-0.00003021,0.00033563,0.00129626,0.00005235,-
 0.00067127,0.00069817,-0.00000948,-0.00001885,0.00066546,0.00007908,-0
 .00001556,0.00031636,0.00000192,0.01265850,-0.02149076,0.00803467,-0.1
 0542257,0.28811279,-0.00013685,-0.00101211,0.00008220,-0.00128581,0.00
 327473,0.00121526,-0.00055809,0.00819238,-0.00719753,-0.00034481,-0.00
 003990,-0.00021561,0.00007111,0.00011122,0.00010116,-0.03399683,0.0674
 4809,-0.04478607,-0.00144091,-0.00415834,-0.00012176,-0.00023209,-0.00
 052798,0.00126497,0.00066116,-0.00097841,-0.00084671,0.00068557,-0.000
 05940,0.00097154,-0.00022943,0.00281413,0.00215108,0.00312879,-0.01642
 001,0.00556136,0.03621080,-0.06049271,0.04435661,0.00202419,-0.0027096
 3,0.00176225,-0.00049085,-0.00000363,0.00029785,-0.01647336,0.00347105
 ,0.00339915,-0.00049371,-0.00012441,0.00029694,0.00047524,0.00027648,-
 0.00014226,-0.00019714,0.00002498,0.00038472,-0.29927275,0.03520190,0.
 06733629,0.00001377,0.00000085,0.00019094,-0.00000979,-0.00001635,0.00
 013973,0.00085177,-0.00026084,-0.00139408,-0.00844616,0.00105048,0.002
 53157,-0.00031746,-0.00026474,0.00000241,-0.00000758,-0.00004708,0.000
 06176,0.31994550,-0.00025523,-0.00347812,0.00149623,-0.00016889,-0.000
 01497,0.00001020,-0.02839445,0.00446194,0.00546907,-0.00081436,-0.0000
 9469,0.00023605,0.00015812,0.00012056,-0.00016843,-0.00009225,0.000535
 13,0.00073495,0.03539073,-0.06189257,-0.00894052,0.00007913,0.00001847
 ,0.00012534,0.00004441,-0.00000519,0.00017232,-0.00011550,0.00098682,-
 0.00052747,0.03184288,-0.00365783,-0.00594600,0.00009376,-0.00053199,-
 0.00001568,0.00005707,-0.00003335,-0.00004778,-0.03848648,0.06686012,0
 .00185125,0.00175712,0.00641318,-0.00123601,-0.00006751,0.00118295,0.0
 1045206,0.00050540,-0.00097695,0.00117136,-0.00017551,-0.00036827,0.00
 033601,0.00014929,-0.00012684,-0.00079626,0.00038457,0.00111014,0.0610
 7562,-0.00992318,-0.05488286,-0.00009853,0.00003474,0.00026343,-0.0000
 7579,-0.00004452,0.00019114,-0.00169908,0.00035967,-0.00378546,0.00612
 979,-0.00084669,0.00278579,-0.00067072,-0.00038224,0.00049063,0.000014
 37,-0.00002684,-0.00019242,-0.07538776,0.00915240,0.04576921,0.0029663
 2,-0.00001526,-0.00134511,0.00168385,0.00068446,0.00219489,0.00078307,
 0.00131819,-0.00918753,0.00027372,0.00005034,0.00023248,0.00007306,0.0
 0003338,-0.00005607,0.01615519,-0.00785462,0.01414244,-0.00154464,-0.0
 0659907,0.00104599,0.00013935,0.00021185,-0.00021633,-0.00040579,-0.00
 126328,0.00034708,-0.00001181,-0.00000632,0.00023913,-0.00969458,0.003
 62372,0.00697648,-0.14358134,0.07643161,-0.03105274,-0.00018538,-0.004
 36667,-0.00392519,-0.00013126,-0.00016916,-0.00054510,0.62941954,-0.00
 424267,0.00082838,0.00221250,-0.00375057,-0.00015873,0.00058758,0.0011
 3798,-0.01597925,0.02953226,-0.00064689,0.00010521,-0.00000258,-0.0008
 7743,-0.00000984,-0.00036050,-0.00659128,-0.06216899,-0.03359105,0.001
 45898,0.02469379,0.00035033,0.00021978,-0.00033889,0.00015382,-0.00058
 136,-0.00021384,0.00007048,-0.00117308,0.00019431,-0.00283587,0.003614
 96,-0.02072869,-0.02333168,0.10456593,-0.33274072,0.05004839,-0.003538
 64,-0.00207039,0.00140674,0.00032664,0.00033371,-0.00005520,-0.0199251
 6,0.70364875,0.00382722,-0.00048036,-0.00165120,0.00422683,-0.00103537
 ,-0.00185828,0.00677542,0.02165032,-0.03461023,0.00050831,-0.00003452,
 0.00010585,0.00046136,0.00020864,0.00050610,0.01156438,0.01896948,0.03
 859897,-0.00608411,-0.05131859,-0.01045304,0.00062154,-0.00022068,-0.0
 0020913,0.00118850,0.00037375,-0.00051691,0.00127174,0.00006066,0.0024
 8323,-0.00740525,0.02348386,0.04819374,-0.03573085,-0.00026184,-0.0577
 1932,-0.00112687,-0.00187627,0.00169492,-0.00021842,-0.00049591,0.0002
 7558,0.10387588,0.02572886,0.09429846,-0.00049304,-0.00001318,-0.00032
 007,0.00204309,-0.00259598,-0.00179191,-0.00021230,0.00001109,-0.00043
 814,0.00001021,-0.00000468,-0.00019473,-0.00001301,-0.00001104,-0.0001
 3191,-0.01588830,0.00313874,-0.00354691,-0.00033658,-0.00026024,-0.000
 01174,-0.00044977,-0.00011482,-0.00029490,0.00047047,0.00027785,0.0001
 2873,-0.00000402,-0.00004878,-0.00005321,-0.00014142,0.00033233,0.0001
 5413,-0.30046439,0.03306414,-0.07088999,0.00079182,-0.00016300,0.00142
 781,0.00024147,-0.00001484,0.00004409,-0.00822904,0.00106231,-0.002707
 36,0.32046270,-0.00014711,-0.00002201,0.00002467,-0.00030278,-0.003567
 81,-0.00130552,-0.00005767,0.00049835,-0.00065494,0.00007993,0.0000130
 3,-0.00012714,0.00003872,0.00000041,-0.00017094,-0.02873086,0.00416241
 ,-0.00588047,0.00010564,-0.00047664,0.00003446,-0.00085354,-0.00009073
 ,-0.00025745,0.00015968,0.00011780,0.00015915,0.00005202,-0.00003088,0
 .00003958,-0.00017197,0.00032687,0.00047796,0.03340208,-0.06140766,0.0
 0913868,-0.00011810,0.00097749,0.00041561,-0.00001332,0.00010144,-0.00
 002391,0.03173838,-0.00341767,0.00634341,-0.03608839,0.06646568,0.0012
 4828,0.00010100,0.00118029,-0.00174441,-0.00155775,0.00639884,0.000786
 21,-0.00030898,0.00100040,0.00010369,-0.00002794,0.00027645,0.00007796
 ,0.00003288,0.00018455,-0.00978629,-0.00045093,-0.00055051,0.00065403,
 0.00035222,0.00047849,-0.00112406,0.00017393,-0.00035018,-0.00035699,-
 0.00016829,-0.00013433,-0.00000923,0.00002025,-0.00018243,0.00055576,0
 .00001121,0.00024747,-0.06575712,0.01009710,-0.05765389,0.00172591,-0.
 00045055,-0.00374348,-0.00002532,0.00000861,-0.00062518,-0.00652427,0.
 00083809,0.00288494,0.07947646,-0.00954537,0.04804197,0.00028850,-0.00
 140171,-0.00060206,0.00023873,0.00029461,-0.00014900,-0.00079112,-0.00
 107163,-0.00028840,0.00026017,-0.00034760,0.00015719,-0.00007073,-0.00
 081997,0.00021081,-0.00020983,0.00060291,0.00060641,-0.00656359,0.0012
 4376,0.00128351,0.00003487,-0.00006436,-0.00009695,0.00002081,0.000117
 17,-0.00002159,0.00002363,0.00017690,-0.00026117,-0.32439375,0.0628781
 5,0.03394937,0.00044684,-0.00070951,0.00016229,0.00003562,-0.00004639,
 -0.00007234,0.00124323,0.00125631,0.00075827,-0.00185699,0.00035444,-0
 .00019364,0.00012783,-0.00011664,-0.00020685,0.34232599,0.00042656,-0.
 00101979,0.00086800,-0.00012789,0.00021343,0.00019067,-0.00011077,0.00
 082888,0.00002030,-0.00011650,0.00035657,-0.00018469,-0.00141763,-0.00
 056471,-0.00023848,0.00017458,-0.00037501,-0.00039530,0.03062602,-0.00
 012522,-0.00279294,-0.00007143,0.00005477,-0.00008449,-0.00012620,-0.0
 0003178,0.00015645,-0.00042293,0.00020768,-0.00048065,0.05891477,-0.07
 111107,-0.00553269,-0.00002006,0.00046648,0.00010994,-0.00008005,0.000
 01926,0.00002533,0.00143228,-0.00482749,-0.00069708,0.00032760,-0.0004
 4815,0.00017220,-0.00004689,-0.00002941,0.00002916,-0.06743765,0.06842
 343,0.00031203,0.00058066,-0.00072930,0.00075064,0.00036441,0.00023176
 ,0.00007614,0.00375546,-0.00856872,0.00010233,0.00013696,0.00007297,-0
 .00029085,-0.00047484,0.00043305,0.00107448,0.00368878,0.00432218,0.00
 647264,-0.01151497,0.00140346,0.00017285,-0.00007254,-0.00011468,0.000
 36037,-0.00012083,-0.00022293,0.00015758,-0.00024280,0.00022307,0.0259
 7324,0.00278862,-0.02320274,-0.00039634,-0.00653283,0.00043043,0.00025
 394,-0.00007968,-0.00038998,0.00215422,-0.00183820,0.00693172,-0.00544
 755,0.00413199,-0.01149238,-0.00005501,-0.00023284,0.00021040,-0.03704
 251,0.00749362,0.03109070,-0.00025801,0.00010060,-0.00028602,0.0000171
 4,-0.00004840,-0.00010704,0.00024310,0.00278924,0.00040576,0.00020998,
 -0.00030228,0.00013191,0.00056408,-0.00017088,0.00026478,-0.00017374,0
 .00077696,0.00117997,0.00798755,0.00875582,-0.00299054,0.00005812,-0.0
 0004869,0.00004977,0.00009993,0.00003101,-0.00009648,0.00036187,0.0005
 4877,0.00024637,-0.16283655,-0.13315192,0.04484096,0.00027849,-0.00122
 786,-0.00014102,0.00007583,-0.00000782,-0.00007715,0.00092629,-0.00028
 790,-0.00155427,-0.00008986,0.00179910,-0.00147628,-0.00000574,-0.0000
 0893,-0.00002283,-0.01304951,-0.02161671,0.00631547,0.16516352,0.00064
 965,0.00004097,0.00005334,0.00002008,-0.00002121,-0.00003753,0.0031421
 6,-0.00364341,-0.00196180,-0.00012103,0.00007488,-0.00002888,-0.000091
 64,0.00024300,-0.00008053,0.00013710,0.00012740,-0.00025239,-0.0202795
 4,-0.01836729,0.00893593,-0.00001612,-0.00000014,0.00001252,-0.0000286
 4,0.00000790,0.00004829,-0.00079012,-0.00120039,0.00039272,-0.13054019
 ,-0.21735320,0.04599913,-0.00001385,-0.00000845,0.00007035,-0.00001214
 ,0.00001002,-0.00002958,0.00016235,0.00117011,-0.00008799,0.00032506,0
 .00007802,-0.00027776,0.00002827,-0.00002302,-0.00001178,0.00516706,0.
 00706471,-0.00205731,0.14218753,0.23138841,0.00049290,-0.00040660,0.00
 029255,-0.00019263,-0.00008216,-0.00005681,0.00289388,0.00068048,0.003
 58174,0.00000153,-0.00014676,0.00005749,0.00019091,0.00046379,0.000039
 24,-0.00032536,0.00100920,0.00134811,-0.00469854,-0.00962459,0.0043734
 4,0.00006071,-0.00003725,0.00002231,0.00006290,0.00007905,-0.00000104,
 0.00025799,0.00005193,0.00026317,0.04662368,0.05498166,-0.04191102,0.0
 0032208,-0.00141263,-0.00020143,0.00001631,-0.00000184,-0.00015031,-0.
 00151073,0.00038806,-0.00456500,0.00247489,0.00342511,-0.00257885,-0.0
 0006149,0.00004083,-0.00007647,0.00084503,0.00163729,0.00068883,-0.047
 08766,-0.05089852,0.03897669,0.00020411,0.00027525,0.00016684,0.000339
 27,-0.00143993,0.00052750,-0.00026071,0.00051184,-0.00045565,0.0000333
 5,-0.00007248,0.00009318,0.00002294,0.00013039,0.00002933,-0.00076407,
 -0.00110808,0.00023666,0.00047185,-0.00051711,-0.00018492,0.00025669,-
 0.00034153,-0.00014497,-0.00005567,-0.00074652,-0.00018649,0.00003125,
 -0.00004244,0.00006830,-0.00178175,0.00028143,0.00015222,-0.00689253,0
 .00127547,-0.00146786,0.00001437,0.00017775,0.00025730,0.00012893,-0.0
 0011801,0.00020561,-0.32566716,0.05967616,-0.03525256,0.00125729,0.001
 28233,-0.00070333,0.00172384,-0.00018355,-0.00098324,0.00018673,0.0000
 8008,0.00007415,0.34353250,-0.00014013,0.00017060,-0.00019087,0.000416
 66,-0.00100707,-0.00087736,0.00016319,-0.00039287,0.00038883,-0.000071
 74,0.00006307,0.00007880,-0.00013513,-0.00003487,-0.00015762,-0.000121
 74,0.00081326,-0.00007988,0.00000593,0.00047589,-0.00013164,-0.0001198
 0,0.00035155,0.00019727,-0.00137583,-0.00055810,0.00025076,-0.00007993
 ,0.00001858,-0.00002428,0.00031064,-0.00047938,-0.00022828,0.03071760,
 0.00019385,0.00305184,-0.00041793,0.00022180,0.00047049,-0.00004646,-0
 .00002774,-0.00002351,0.05580943,-0.06996271,0.00552744,0.00134164,-0.
 00475965,0.00076684,-0.00016355,0.00082941,0.00027493,-0.00011547,0.00
 007153,0.00003098,-0.06417224,0.06697995,-0.00065664,-0.00045356,0.000
 28838,-0.00043389,-0.00049716,-0.00061290,-0.00100828,-0.00357941,0.00
 407765,-0.00018930,0.00007117,-0.00010271,-0.00036230,0.00014170,-0.00
 020613,-0.00001219,-0.00373272,-0.00860862,0.00037603,0.00623704,0.000
 45743,-0.00009548,-0.00013071,0.00007572,0.00030367,0.00046996,0.00040
 200,-0.00025362,0.00006200,-0.00041871,0.00552503,-0.00402721,-0.01123
 136,-0.00684971,0.01139341,0.00160075,-0.00012999,0.00022804,0.0001671
 8,0.00005882,0.00022523,0.00018810,-0.02714149,-0.00253283,-0.02462595
 ,-0.00231452,0.00193097,0.00695654,0.00106599,-0.00026927,-0.00076843,
 -0.00003569,0.00004287,-0.00059290,0.03852408,-0.00763154,0.03193665,-
 0.00000801,-0.00003544,0.00010801,-0.00025112,0.00007499,0.00027837,-0
 .00018041,0.00079759,-0.00114896,0.00006150,-0.00005482,-0.00004808,0.
 00010937,0.00002898,0.00010279,0.00023966,0.00283903,-0.00059246,0.000
 28403,-0.00122051,0.00015926,0.00021116,-0.00029009,-0.00013782,0.0005
 5256,-0.00014749,-0.00026788,0.00007840,-0.00000364,0.00008387,-0.0000
 6777,0.00188006,0.00149829,0.00828052,0.00891672,0.00293291,0.00037267
 ,0.00055714,-0.00020481,-0.00001032,-0.00000534,0.00002509,-0.16009625
 ,-0.13288920,-0.04412585,0.00083272,-0.00024948,0.00163239,0.00016545,
 -0.00012355,0.00003958,0.00024080,-0.00000608,-0.00044054,-0.01278122,
 -0.02180514,-0.00637052,0.16196626,0.00001866,-0.00002691,0.00003512,0
 .00063714,0.00004510,-0.00005358,0.00012847,0.00017904,0.00022023,-0.0
 0001574,0.00000016,-0.00001485,-0.00002685,0.00000860,-0.00004908,0.00
 311323,-0.00362334,0.00201113,0.00000874,-0.00005842,-0.00007428,-0.00
 011881,0.00007627,0.00002659,-0.00008675,0.00023499,0.00007061,-0.0000
 0692,0.00001056,0.00003792,0.00030917,0.00013108,0.00026873,-0.0198303
 2,-0.01843209,-0.00878769,-0.00077989,-0.00117082,-0.00039252,0.000025
 94,-0.00002437,0.00001098,-0.13035448,-0.22164428,-0.04651733,0.000105
 46,0.00116200,0.00009031,0.00008769,0.00006799,-0.00004858,-0.00000220
 ,0.00034018,-0.00017803,0.00505119,0.00703292,0.00205202,0.14173627,0.
 23569132,0.00021569,0.00010761,-0.00007339,-0.00042196,0.00038045,0.00
 027729,0.00033169,-0.00096189,0.00107934,-0.00005935,0.00004096,0.0000
 2407,-0.00007608,-0.00008415,-0.00000263,-0.00297677,-0.00029742,0.003
 87808,-0.00033371,0.00120266,-0.00017941,0.00000856,0.00013146,0.00006
 059,-0.00017560,-0.00042693,0.00006109,-0.00001380,-0.00000422,-0.0001
 4666,-0.00240671,-0.00338210,-0.00258189,0.00467946,0.00975790,0.00494
 399,-0.00018191,0.00001667,0.00007756,0.00006190,-0.00003847,-0.000078
 90,-0.04608790,-0.05577645,-0.04332650,0.00158067,-0.00040674,-0.00454
 388,-0.00010436,-0.00002735,-0.00054942,0.00043999,0.00016892,0.000490
 27,-0.00095615,-0.00169321,0.00101732,0.04647635,0.05129229,0.03957306
 \\0.00004495,0.00009151,-0.00000480,-0.00004836,-0.00012483,0.00000386
 ,0.00000203,0.00003610,0.00000030,0.00000067,0.00000059,-0.00000020,-0
 .00000011,-0.00000026,-0.00000077,0.00000275,0.00000237,0.00000044,-0.
 00000217,-0.00000284,-0.00000525,0.00000103,0.00000076,-0.00000032,-0.
 00000007,-0.00000017,0.00000100,-0.00000020,0.00000038,-0.00000051,0.0
 0000178,0.00000035,0.00000465,-0.00000252,-0.00000348,0.00000766,0.000
 00025,0.00000023,0.00000018,-0.00000053,0.00000091,0.00000093,0.000001
 73,-0.00000115,-0.00000530,-0.00000039,0.00000169,-0.00000107,0.000000
 53,-0.00000080,-0.00000150,-0.00000072,-0.00000031,-0.00000146,0.00000
 020,-0.00000093,0.00000084,-0.00000087,-0.00000013,0.00000132\\\@


            THE IRISH PIG
 'TWAS AN EVENING IN NOVEMBER,
 AS I VERY WELL REMEMBER
 I WAS STROLLING DOWN THE STREET IN DRUNKEN PRIDE,
 BUT MY KNEES WERE ALL A'FLUTTER
 SO I LANDED IN THE GUTTER,
 AND A PIG CAME UP AND LAY DOWN BY MY SIDE.

 YES, I LAY THERE IN THE GUTTER
 THINKING THOUGHTS I COULD NOT UTTER
 WHEN A COLLEEN PASSING BY DID SOFTLY SAY,
 'YE CAN TELL A MAN THAT BOOZES
 BY THE COMPANY THAT HE CHOOSES.' -
 AT THAT, THE PIG GOT UP AND WALKED AWAY!
     -- THE ECONOMIST, AUGUST 23, 1986
 Job cpu time:       0 days  1 hours 57 minutes 40.3 seconds.
 Elapsed time:       0 days  0 hours 10 minutes 10.2 seconds.
 File lengths (MBytes):  RWF=    163 Int=      0 D2E=      0 Chk=     32 Scr=      1
 Normal termination of Gaussian 16 at Fri Jun 10 02:57:36 2022.
