 Entering Gaussian System, Link 0=g16
 Input=ts_initalOpt_zmat_sp.gjf
 Output=ts_initalOpt_zmat_sp.out
 Initial command:
 /software/gaussian/g16-a03/l1.exe "/local_scratch/11171705/Gau-16871.inp" -scrdir="/local_scratch/11171705/"
 Entering Link 1 = /software/gaussian/g16-a03/l1.exe PID=     16872.
  
 Copyright (c) 1988,1990,1992,1993,1995,1998,2003,2009,2016,
            Gaussian, Inc.  All Rights Reserved.
  
 This is part of the Gaussian(R) 16 program.  It is based on
 the Gaussian(R) 09 system (copyright 2009, Gaussian, Inc.),
 the Gaussian(R) 03 system (copyright 2003, Gaussian, Inc.),
 the Gaussian(R) 98 system (copyright 1998, Gaussian, Inc.),
 the Gaussian(R) 94 system (copyright 1995, Gaussian, Inc.),
 the Gaussian 92(TM) system (copyright 1992, Gaussian, Inc.),
 the Gaussian 90(TM) system (copyright 1990, Gaussian, Inc.),
 the Gaussian 88(TM) system (copyright 1988, Gaussian, Inc.),
 the Gaussian 86(TM) system (copyright 1986, Carnegie Mellon
 University), and the Gaussian 82(TM) system (copyright 1983,
 Carnegie Mellon University). Gaussian is a federally registered
 trademark of Gaussian, Inc.
  
 This software contains proprietary and confidential information,
 including trade secrets, belonging to Gaussian, Inc.
  
 This software is provided under written license and may be
 used, copied, transmitted, or stored only in accord with that
 written license.
  
 The following legend is applicable only to US Government
 contracts under FAR:
  
                    RESTRICTED RIGHTS LEGEND
  
 Use, reproduction and disclosure by the US Government is
 subject to restrictions as set forth in subparagraphs (a)
 and (c) of the Commercial Computer Software - Restricted
 Rights clause in FAR 52.227-19.
  
 Gaussian, Inc.
 340 Quinnipiac St., Bldg. 40, Wallingford CT 06492
  
  
 ---------------------------------------------------------------
 Warning -- This program may not be used in any manner that
 competes with the business of Gaussian, Inc. or will provide
 assistance to any competitor of Gaussian, Inc.  The licensee
 of this program is prohibited from giving any competitor of
 Gaussian, Inc. access to this program.  By using this program,
 the user acknowledges that Gaussian, Inc. is engaged in the
 business of creating and licensing software in the field of
 computational chemistry and represents and warrants to the
 licensee that it is not a competitor of Gaussian, Inc. and that
 it will not use this program in any manner prohibited above.
 ---------------------------------------------------------------
  

 Cite this work as:
 Gaussian 16, Revision A.03,
 M. J. Frisch, G. W. Trucks, H. B. Schlegel, G. E. Scuseria, 
 M. A. Robb, J. R. Cheeseman, G. Scalmani, V. Barone, 
 G. A. Petersson, H. Nakatsuji, X. Li, M. Caricato, A. V. Marenich, 
 J. Bloino, B. G. Janesko, R. Gomperts, B. Mennucci, H. P. Hratchian, 
 J. V. Ortiz, A. F. Izmaylov, J. L. Sonnenberg, D. Williams-Young, 
 F. Ding, F. Lipparini, F. Egidi, J. Goings, B. Peng, A. Petrone, 
 T. Henderson, D. Ranasinghe, V. G. Zakrzewski, J. Gao, N. Rega, 
 G. Zheng, W. Liang, M. Hada, M. Ehara, K. Toyota, R. Fukuda, 
 J. Hasegawa, M. Ishida, T. Nakajima, Y. Honda, O. Kitao, H. Nakai, 
 T. Vreven, K. Throssell, J. A. Montgomery, Jr., J. E. Peralta, 
 F. Ogliaro, M. J. Bearpark, J. J. Heyd, E. N. Brothers, K. N. Kudin, 
 V. N. Staroverov, T. A. Keith, R. Kobayashi, J. Normand, 
 K. Raghavachari, A. P. Rendell, J. C. Burant, S. S. Iyengar, 
 J. Tomasi, M. Cossi, J. M. Millam, M. Klene, C. Adamo, R. Cammi, 
 J. W. Ochterski, R. L. Martin, K. Morokuma, O. Farkas, 
 J. B. Foresman, and D. J. Fox, Gaussian, Inc., Wallingford CT, 2016.
 
 ******************************************
 Gaussian 16:  ES64L-G16RevA.03 25-Dec-2016
                10-Jun-2022 
 ******************************************
 %nprocshared=12
 Will use up to   12 processors via shared memory.
 %chk=checkpoint.chk
 %mem=12GB
 --------------------------
 # sp B3LYP/Def2TZVP NoSymm
 --------------------------
 1/38=1,172=1/1;
 2/12=2,15=1,17=6,18=5,40=1/2;
 3/5=44,7=101,11=2,25=1,30=1,74=-5/1,2,3;
 4//1;
 5/5=2,38=5/2;
 6/7=2,8=2,9=2,10=2,28=1/1;
 99/5=1,9=1/99;
 ---------------------------
 ts_initalOpt_zmat_AlignedSp
 ---------------------------
 Symbolic Z-matrix:
 Charge =  0 Multiplicity = 1
 C
 C                    1    R2
 C                    1    R3       2    A3
 H                    1    R4       2    A4       3    D4       0
 C                    2    R5       1    A5       3    D5       0
 N                    3    R6       1    A6       2    D6       0
 H                    3    R7       1    A7       6    D7       0
 H                    2    R8       1    A8       5    D8       0
 H                    3    R9       1    A9       6    D9       0
 H                    5    R10      2    A10      1    D10      0
       Variables:
  R2                    1.39163                  
  R3                    1.40048                  
  R4                    1.07852                  
  R5                    1.39546                  
  R6                    1.45423                  
  R7                    1.07928                  
  R8                    1.07962                  
  R9                    1.29016                  
  R10                   1.07973                  
  A3                  106.63906                  
  A4                  127.31466                  
  A5                  107.55931                  
  A6                  109.24852                  
  A7                  129.66066                  
  A8                  126.41566                  
  A9                  115.14097                  
  A10                 127.98006                  
  D4                  179.74599                  
  D5                    0.83033                  
  D6                    1.40223                  
  D7                  161.08096                  
  D8                  178.21577                  
  D9                  -59.49723                  
  D10                 174.78041                  
 
                          Input orientation:                          
 ---------------------------------------------------------------------
 Center     Atomic      Atomic             Coordinates (Angstroms)
 Number     Number       Type             X           Y           Z
 ---------------------------------------------------------------------
      1          6           0        0.000000    0.000000    0.000000
      2          6           0        0.000000    0.000000    1.391629
      3          6           0        1.341837    0.000000   -0.401015
      4          1           0       -0.857756   -0.003803   -0.653789
      5          6           0        1.330294    0.019280    1.812627
      6          7           0        2.194183   -0.033597    0.776761
      7          1           0        1.774952   -0.250080   -1.357422
      8          1           0       -0.868684    0.014464    2.032533
      9          1           0        2.043756    0.991490    0.033457
     10          1           0        1.706928    0.102171    2.821138
 ---------------------------------------------------------------------
                    Distance matrix (angstroms):
                    1          2          3          4          5
     1  C    0.000000
     2  C    1.391629   0.000000
     3  C    1.400479   2.239219   0.000000
     4  H    1.078517   2.217993   2.214073   0.000000
     5  C    2.248482   1.395455   2.213757   3.297166   0.000000
     6  N    2.327859   2.278954   1.454228   3.370711   1.349859
     7  H    2.248464   3.281809   1.079278   2.736221   3.212396
     8  H    2.210432   1.079620   3.287669   2.686406   2.209952
     9  H    2.271808   2.646624   1.290158   3.143515   2.149341
    10  H    3.298918   2.228797   3.244380   4.320179   1.079730
                    6          7          8          9         10
     6  N    0.000000
     7  H    2.185716   0.000000
     8  H    3.310654   4.307039   0.000000
     9  H    1.275121   1.883692   3.665132   0.000000
    10  H    2.106022   4.193933   2.695063   2.945421   0.000000
 Symmetry turned off by external request.
 Stoichiometry    C4H5N
 Framework group  C1[X(C4H5N)]
 Deg. of freedom    24
 Full point group                 C1      NOp   1
 Rotational constants (GHZ):           9.1999105           8.8525117           4.5996332
 Standard basis: def2TZVP (5D, 7F)
   185 basis functions,   295 primitive gaussians,   210 cartesian basis functions
    18 alpha electrons       18 beta electrons
       nuclear repulsion energy       160.5895358688 Hartrees.
 NAtoms=   10 NActive=   10 NUniq=   10 SFac= 1.00D+00 NAtFMM=   60 NAOKFM=F Big=F
 Integral buffers will be    131072 words long.
 Raffenetti 2 integral format.
 Two-electron integral symmetry is turned off.
 One-electron integrals computed using PRISM.
   1 Symmetry operations used in ECPInt.
 ECPInt:  NShTT=    2850 NPrTT=    8640 LenC2=    2843 LenP2D=    7477.
 LDataN:  DoStor=T MaxTD1= 6 Len=  172
 NBasis=   185 RedAO= T EigKep=  5.73D-05  NBF=   185
 NBsUse=   185 1.00D-06 EigRej= -1.00D+00 NBFU=   185
 ExpMin= 9.52D-02 ExpMax= 1.97D+04 ExpMxC= 6.73D+02 IAcc=3 IRadAn=         5 AccDes= 0.00D+00
 Harris functional with IExCor=  402 and IRadAn=       5 diagonalized for initial guess.
 HarFok:  IExCor=  402 AccDes= 0.00D+00 IRadAn=         5 IDoV= 1 UseB2=F ITyADJ=14
 ICtDFT=  3500011 ScaDFX=  1.000000  1.000000  1.000000  1.000000
 FoFCou: FMM=F IPFlag=           0 FMFlag=      100000 FMFlg1=           0
         NFxFlg=           0 DoJE=T BraDBF=F KetDBF=T FulRan=T
         wScrn=  0.000000 ICntrl=       500 IOpCl=  0 I1Cent=   200000004 NGrid=           0
         NMat0=    1 NMatS0=      1 NMatT0=    0 NMatD0=    1 NMtDS0=    0 NMtDT0=    0
 Symmetry not used in FoFCou.
 Keep R1 ints in memory in canonical form, NReq=160464061.
 Requested convergence on RMS density matrix=1.00D-08 within 128 cycles.
 Requested convergence on MAX density matrix=1.00D-06.
 Requested convergence on             energy=1.00D-06.
 No special actions if energy rises.
 Integral accuracy reduced to 1.0D-05 until final iterations.
 Initial convergence to 1.0D-05 achieved.  Increase integral accuracy.
 SCF Done:  E(RB3LYP) =  -210.175709361     A.U. after   14 cycles
            NFock= 14  Conv=0.33D-08     -V/T= 2.0051

 **********************************************************************

            Population analysis using the SCF density.

 **********************************************************************

 Alpha  occ. eigenvalues --  -14.34125 -10.21670 -10.19481 -10.18050 -10.17778
 Alpha  occ. eigenvalues --   -0.97753  -0.77581  -0.73519  -0.58564  -0.56295
 Alpha  occ. eigenvalues --   -0.52621  -0.47542  -0.40877  -0.40248  -0.39979
 Alpha  occ. eigenvalues --   -0.30272  -0.28330  -0.25349
 Alpha virt. eigenvalues --   -0.01105   0.01723   0.05429   0.07031   0.08687
 Alpha virt. eigenvalues --    0.09004   0.09941   0.13859   0.15856   0.17736
 Alpha virt. eigenvalues --    0.19506   0.21428   0.22598   0.23806   0.24482
 Alpha virt. eigenvalues --    0.26406   0.30743   0.33418   0.34077   0.34366
 Alpha virt. eigenvalues --    0.36345   0.37095   0.39259   0.39969   0.40879
 Alpha virt. eigenvalues --    0.42232   0.43323   0.45804   0.46979   0.49867
 Alpha virt. eigenvalues --    0.51134   0.53024   0.56773   0.59607   0.60312
 Alpha virt. eigenvalues --    0.65515   0.67378   0.70032   0.74996   0.83947
 Alpha virt. eigenvalues --    0.86349   0.88356   0.92232   0.94831   0.95257
 Alpha virt. eigenvalues --    0.98218   1.03026   1.06715   1.08802   1.09528
 Alpha virt. eigenvalues --    1.12042   1.14951   1.18679   1.23550   1.24706
 Alpha virt. eigenvalues --    1.27609   1.33990   1.35647   1.42171   1.42652
 Alpha virt. eigenvalues --    1.44971   1.46288   1.48086   1.51100   1.55227
 Alpha virt. eigenvalues --    1.56050   1.59757   1.65156   1.68207   1.69761
 Alpha virt. eigenvalues --    1.71824   1.74235   1.77574   1.85696   1.89137
 Alpha virt. eigenvalues --    1.97674   1.98724   2.01627   2.06338   2.06487
 Alpha virt. eigenvalues --    2.09628   2.15093   2.18196   2.19859   2.30158
 Alpha virt. eigenvalues --    2.33250   2.38649   2.44308   2.45407   2.46522
 Alpha virt. eigenvalues --    2.50950   2.55505   2.56694   2.60938   2.62754
 Alpha virt. eigenvalues --    2.65069   2.68698   2.70884   2.72005   2.74717
 Alpha virt. eigenvalues --    2.79112   2.82807   2.84589   2.89916   2.91866
 Alpha virt. eigenvalues --    2.94064   2.95753   2.97112   3.00481   3.02305
 Alpha virt. eigenvalues --    3.04436   3.08792   3.09836   3.13582   3.17293
 Alpha virt. eigenvalues --    3.18274   3.23710   3.27942   3.32049   3.33526
 Alpha virt. eigenvalues --    3.38395   3.40896   3.42657   3.45218   3.46069
 Alpha virt. eigenvalues --    3.49365   3.50145   3.59903   3.61664   3.67209
 Alpha virt. eigenvalues --    3.79267   3.85158   3.97132   4.00102   4.07152
 Alpha virt. eigenvalues --    4.08809   4.11720   4.19448   4.20274   4.23187
 Alpha virt. eigenvalues --    4.28846   4.32018   4.36431   4.44085   4.48208
 Alpha virt. eigenvalues --    4.54304   4.66045   4.71120   4.74646   4.82975
 Alpha virt. eigenvalues --    4.88758   4.91491   4.96460   5.02376   5.15507
 Alpha virt. eigenvalues --    5.18668   5.24318   5.24871   5.41982   5.56334
 Alpha virt. eigenvalues --    5.70991   5.75231  22.09916  22.45436  22.56387
 Alpha virt. eigenvalues --   22.81556  32.13563
          Condensed to atoms (all electrons):
               1          2          3          4          5          6
     1  C    5.104454   0.503425   0.339981   0.401830  -0.031576  -0.074466
     2  C    0.503425   4.897044  -0.057747  -0.031448   0.515950  -0.085978
     3  C    0.339981  -0.057747   5.316386  -0.030087  -0.182155   0.121288
     4  H    0.401830  -0.031448  -0.030087   0.531432   0.006037   0.004625
     5  C   -0.031576   0.515950  -0.182155   0.006037   4.908865   0.518496
     6  N   -0.074466  -0.085978   0.121288   0.004625   0.518496   6.712356
     7  H   -0.043836   0.007381   0.417386  -0.001076   0.004788  -0.030766
     8  H   -0.054048   0.414218   0.017675  -0.001723  -0.041115   0.006447
     9  H    0.024548  -0.022557   0.119766  -0.000303  -0.014539   0.142039
    10  H    0.006089  -0.051068   0.009350  -0.000112   0.422962  -0.029775
               7          8          9         10
     1  C   -0.043836  -0.054048   0.024548   0.006089
     2  C    0.007381   0.414218  -0.022557  -0.051068
     3  C    0.417386   0.017675   0.119766   0.009350
     4  H   -0.001076  -0.001723  -0.000303  -0.000112
     5  C    0.004788  -0.041115  -0.014539   0.422962
     6  N   -0.030766   0.006447   0.142039  -0.029775
     7  H    0.512182   0.000002  -0.016715  -0.000191
     8  H    0.000002   0.545422  -0.001156  -0.000651
     9  H   -0.016715  -0.001156   0.544071  -0.002054
    10  H   -0.000191  -0.000651  -0.002054   0.529507
 Mulliken charges:
               1
     1  C   -0.176401
     2  C   -0.089220
     3  C   -0.071844
     4  H    0.120824
     5  C   -0.107713
     6  N   -0.284266
     7  H    0.150845
     8  H    0.114930
     9  H    0.226901
    10  H    0.115943
 Sum of Mulliken charges =  -0.00000
 Mulliken charges with hydrogens summed into heavy atoms:
               1
     1  C   -0.055576
     2  C    0.025710
     3  C    0.079001
     5  C    0.008230
     6  N   -0.057365
 Electronic spatial extent (au):  <R**2>=            492.9858
 Charge=             -0.0000 electrons
 Dipole moment (field-independent basis, Debye):
    X=             -1.1905    Y=              0.6671    Z=             -0.5607  Tot=              1.4754
 Quadrupole moment (field-independent basis, Debye-Ang):
   XX=            -33.7786   YY=            -31.8878   ZZ=            -26.7806
   XY=              1.7461   XZ=             -2.3195   YZ=              0.6879
 Traceless Quadrupole moment (field-independent basis, Debye-Ang):
   XX=             -2.9629   YY=             -1.0722   ZZ=              4.0351
   XY=              1.7461   XZ=             -2.3195   YZ=              0.6879
 Octapole moment (field-independent basis, Debye-Ang**2):
  XXX=           -105.9787  YYY=             -0.9866  ZZZ=            -55.0498  XYY=            -28.4093
  XXY=              3.4651  XXZ=            -27.2301  XZZ=            -26.1402  YZZ=             -0.9133
  YYZ=            -22.9797  XYZ=              1.1899
 Hexadecapole moment (field-independent basis, Debye-Ang**3):
 XXXX=           -423.7620 YYYY=            -41.1153 ZZZZ=           -250.9206 XXXY=              5.9332
 XXXZ=            -82.4536 YYYX=             -1.1125 YYYZ=             -1.0539 ZZZX=            -51.6388
 ZZZY=              0.8296 XXYY=            -65.7359 XXZZ=            -97.3055 YYZZ=            -59.4915
 XXYZ=              1.6750 YYXZ=            -21.6089 ZZXY=             -1.5831
 N-N= 1.605895358688D+02 E-N=-8.093026459888D+02  KE= 2.091031049804D+02
 1\1\GINC-BHC0021\SP\RB3LYP\def2TZVP\C4H5N1\DHANAWAY\10-Jun-2022\0\\# s
 p B3LYP/Def2TZVP NoSymm\\ts_initalOpt_zmat_AlignedSp\\0,1\C\C,1,1.3916
 285\C,1,1.40047886,2,106.63905898\H,1,1.0785173,2,127.31466348,3,179.7
 4599453,0\C,2,1.39545501,1,107.55930729,3,0.83032723,0\N,3,1.45422796,
 1,109.24852016,2,1.40222515,0\H,3,1.07927834,1,129.66066285,6,161.0809
 6268,0\H,2,1.07961986,1,126.41566418,5,178.21576941,0\H,3,1.2901583,1,
 115.1409749,6,-59.49723491,0\H,5,1.07973011,2,127.98006366,1,174.78041
 102,0\\Version=ES64L-G16RevA.03\HF=-210.1757094\RMSD=3.343e-09\Dipole=
 -0.4683973,0.2624587,-0.2205887\Quadrupole=-2.202837,-0.7971241,2.9999
 611,1.2981463,-1.7244875,0.5114217\PG=C01 [X(C4H5N1)]\\@


 MY DESCRIPTION OF EXPERIENCE IS NOT WHAT HAPPENS
 TO A MAN.  EXPERIENCE IS WHAT A MAN DOES WITH WHAT
 HAPPENS TO HIM.
                         - CHUCK KNOX, SEATTLE SEAHAWKS, 1985
 Job cpu time:       0 days  0 hours  1 minutes 43.6 seconds.
 Elapsed time:       0 days  0 hours  0 minutes 12.2 seconds.
 File lengths (MBytes):  RWF=     19 Int=      0 D2E=      0 Chk=     32 Scr=      1
 Normal termination of Gaussian 16 at Fri Jun 10 11:02:17 2022.
