 Entering Gaussian System, Link 0=g16
 Input=ts_zmat_field_N100.gjf
 Output=ts_zmat_field_N100.out
 Initial command:
 /software/gaussian/g16-a03/l1.exe "/local_scratch/11174802/Gau-16404.inp" -scrdir="/local_scratch/11174802/"
 Entering Link 1 = /software/gaussian/g16-a03/l1.exe PID=     16405.
  
 Copyright (c) 1988,1990,1992,1993,1995,1998,2003,2009,2016,
            Gaussian, Inc.  All Rights Reserved.
  
 This is part of the Gaussian(R) 16 program.  It is based on
 the Gaussian(R) 09 system (copyright 2009, Gaussian, Inc.),
 the Gaussian(R) 03 system (copyright 2003, Gaussian, Inc.),
 the Gaussian(R) 98 system (copyright 1998, Gaussian, Inc.),
 the Gaussian(R) 94 system (copyright 1995, Gaussian, Inc.),
 the Gaussian 92(TM) system (copyright 1992, Gaussian, Inc.),
 the Gaussian 90(TM) system (copyright 1990, Gaussian, Inc.),
 the Gaussian 88(TM) system (copyright 1988, Gaussian, Inc.),
 the Gaussian 86(TM) system (copyright 1986, Carnegie Mellon
 University), and the Gaussian 82(TM) system (copyright 1983,
 Carnegie Mellon University). Gaussian is a federally registered
 trademark of Gaussian, Inc.
  
 This software contains proprietary and confidential information,
 including trade secrets, belonging to Gaussian, Inc.
  
 This software is provided under written license and may be
 used, copied, transmitted, or stored only in accord with that
 written license.
  
 The following legend is applicable only to US Government
 contracts under FAR:
  
                    RESTRICTED RIGHTS LEGEND
  
 Use, reproduction and disclosure by the US Government is
 subject to restrictions as set forth in subparagraphs (a)
 and (c) of the Commercial Computer Software - Restricted
 Rights clause in FAR 52.227-19.
  
 Gaussian, Inc.
 340 Quinnipiac St., Bldg. 40, Wallingford CT 06492
  
  
 ---------------------------------------------------------------
 Warning -- This program may not be used in any manner that
 competes with the business of Gaussian, Inc. or will provide
 assistance to any competitor of Gaussian, Inc.  The licensee
 of this program is prohibited from giving any competitor of
 Gaussian, Inc. access to this program.  By using this program,
 the user acknowledges that Gaussian, Inc. is engaged in the
 business of creating and licensing software in the field of
 computational chemistry and represents and warrants to the
 licensee that it is not a competitor of Gaussian, Inc. and that
 it will not use this program in any manner prohibited above.
 ---------------------------------------------------------------
  

 Cite this work as:
 Gaussian 16, Revision A.03,
 M. J. Frisch, G. W. Trucks, H. B. Schlegel, G. E. Scuseria, 
 M. A. Robb, J. R. Cheeseman, G. Scalmani, V. Barone, 
 G. A. Petersson, H. Nakatsuji, X. Li, M. Caricato, A. V. Marenich, 
 J. Bloino, B. G. Janesko, R. Gomperts, B. Mennucci, H. P. Hratchian, 
 J. V. Ortiz, A. F. Izmaylov, J. L. Sonnenberg, D. Williams-Young, 
 F. Ding, F. Lipparini, F. Egidi, J. Goings, B. Peng, A. Petrone, 
 T. Henderson, D. Ranasinghe, V. G. Zakrzewski, J. Gao, N. Rega, 
 G. Zheng, W. Liang, M. Hada, M. Ehara, K. Toyota, R. Fukuda, 
 J. Hasegawa, M. Ishida, T. Nakajima, Y. Honda, O. Kitao, H. Nakai, 
 T. Vreven, K. Throssell, J. A. Montgomery, Jr., J. E. Peralta, 
 F. Ogliaro, M. J. Bearpark, J. J. Heyd, E. N. Brothers, K. N. Kudin, 
 V. N. Staroverov, T. A. Keith, R. Kobayashi, J. Normand, 
 K. Raghavachari, A. P. Rendell, J. C. Burant, S. S. Iyengar, 
 J. Tomasi, M. Cossi, J. M. Millam, M. Klene, C. Adamo, R. Cammi, 
 J. W. Ochterski, R. L. Martin, K. Morokuma, O. Farkas, 
 J. B. Foresman, and D. J. Fox, Gaussian, Inc., Wallingford CT, 2016.
 
 ******************************************
 Gaussian 16:  ES64L-G16RevA.03 25-Dec-2016
                11-Jun-2022 
 ******************************************
 %nprocshared=12
 Will use up to   12 processors via shared memory.
 %chk=checkpoint.chk
 %mem=12GB
 ----------------------------------------------------------------------
 # Opt=(TS, CalcFC, noeigentest, Z-matrix, MaxStep=10) geom=allcheckpoi
 nt guess=read Field=read NoSymm B3LYP/Def2TZVP freq=noraman pop=none
 ----------------------------------------------------------------------
 1/5=1,8=10,10=4,11=1,18=40,26=3,29=7,38=1/1,3;
 2/12=2,15=1,29=3,40=1/2;
 3/5=44,7=101,11=2,14=-6,25=1,30=1,71=2,74=-5,116=-2,140=1/1,2,3;
 4/5=1/1;
 5/5=2,38=6/2;
 8/6=4,10=90,11=11/1;
 11/6=1,8=1,9=11,15=111,16=1,31=1/1,2,10;
 10/6=1,13=1,31=1/2;
 7/10=1,18=20,25=1,30=1/1,2,3,16;
 1/5=1,8=10,10=4,11=1,18=40,26=3/3(2);
 2/15=1,29=3/2;
 99//99;
 2/15=1,29=3/2;
 3/5=44,7=101,11=2,14=-2,25=1,30=1,71=1,74=-5/1,2,3;
 4/5=5,16=3,69=1/1;
 5/5=2,38=5/2;
 7/30=1/1,2,3,16;
 1/5=1,8=10,11=1,18=40,26=3/3(-5);
 2/15=1,29=3/2;
 99/9=1/99;
 Structure from the checkpoint file:  "checkpoint.chk"
 -----------------
 ts_zmat_initalOpt
 -----------------
 Charge =  0 Multiplicity = 1
 Z-Matrix found in chk file.
 H
 C,1,R2
 C,2,R3,1,A3
 C,2,R4,1,A4,3,D4,0
 H,3,R5,2,A5,1,D5,0
 C,3,R6,2,A6,5,D6,0
 C,4,R3,2,A7,1,D7,0
 H,4,R2,2,A4,7,D8,0
 C,6,R9,3,A9,2,D9,0
 C,6,R10,3,A10,9,D10,0
 H,7,R5,4,A5,2,D11,0
 H,9,R12,6,A12,3,D12,0
 C,10,R9,6,A13,3,D13,0
 H,9,R14,6,A14,12,D14,0
 H,13,R12,10,A12,6,D15,0
 H,13,R14,10,A14,15,D14,0
      Variables:
 R2=1.08235843
 R3=1.38048421
 R4=1.41347373
 R5=1.08330206
 R6=1.40478462
 R9=1.42777682
 R10=1.41088292
 R12=1.07849996
 R14=1.09026179
 A3=119.76499204
 A4=118.66417869
 A5=120.86661718
 A6=117.08217707
 A7=121.52486462
 A9=133.27180448
 A10=120.48034452
 A12=117.80503964
 A13=106.14818572
 A14=122.40363068
 D4=-177.56750223
 D5=-1.7436981
 D6=-174.76907625
 D7=-178.24364517
 D8=177.53682431
 D9=164.47195392
 D10=-175.79664204
 D11=175.76784797
 D12=-118.21217281
 D13=-159.8647788
 D14=153.39158708
 D15=58.01878861
 Recover connectivity data from disk.

 GradGradGradGradGradGradGradGradGradGradGradGradGradGradGradGradGradGrad
 Berny optimization.
 Initialization pass.
                       ----------------------------
                       !    Initial Parameters    !
                       ! (Angstroms and Degrees)  !
 ----------------------                            ----------------------
 !      Name          Value   Derivative information (Atomic Units)     !
 ------------------------------------------------------------------------
 !       R2          1.0824   calculate D2E/DX2 analytically            !
 !       R3          1.3805   calculate D2E/DX2 analytically            !
 !       R4          1.4135   calculate D2E/DX2 analytically            !
 !       R5          1.0833   calculate D2E/DX2 analytically            !
 !       R6          1.4048   calculate D2E/DX2 analytically            !
 !       R9          1.4278   calculate D2E/DX2 analytically            !
 !       R10         1.4109   calculate D2E/DX2 analytically            !
 !       R12         1.0785   calculate D2E/DX2 analytically            !
 !       R14         1.0903   calculate D2E/DX2 analytically            !
 !       A3        119.765    calculate D2E/DX2 analytically            !
 !       A4        118.6642   calculate D2E/DX2 analytically            !
 !       A5        120.8666   calculate D2E/DX2 analytically            !
 !       A6        117.0822   calculate D2E/DX2 analytically            !
 !       A7        121.5249   calculate D2E/DX2 analytically            !
 !       A9        133.2718   calculate D2E/DX2 analytically            !
 !       A10       120.4803   calculate D2E/DX2 analytically            !
 !       A12       117.805    calculate D2E/DX2 analytically            !
 !       A13       106.1482   calculate D2E/DX2 analytically            !
 !       A14       122.4036   calculate D2E/DX2 analytically            !
 !       D4       -177.5675   calculate D2E/DX2 analytically            !
 !       D5         -1.7437   calculate D2E/DX2 analytically            !
 !       D6       -174.7691   calculate D2E/DX2 analytically            !
 !       D7       -178.2436   calculate D2E/DX2 analytically            !
 !       D8        177.5368   calculate D2E/DX2 analytically            !
 !       D9        164.472    calculate D2E/DX2 analytically            !
 !       D10      -175.7966   calculate D2E/DX2 analytically            !
 !       D11       175.7678   calculate D2E/DX2 analytically            !
 !       D12      -118.2122   calculate D2E/DX2 analytically            !
 !       D13      -159.8648   calculate D2E/DX2 analytically            !
 !       D14       153.3916   calculate D2E/DX2 analytically            !
 !       D15        58.0188   calculate D2E/DX2 analytically            !
 ------------------------------------------------------------------------
 Trust Radius=1.00D-01 FncErr=1.00D-07 GrdErr=1.00D-06 EigMax=2.50D+02 EigMin=1.00D-04
 Number of steps in this run=     41 maximum allowed number of steps=    100.
 Search for a saddle point of order  1.
 GradGradGradGradGradGradGradGradGradGradGradGradGradGradGradGradGradGrad

 ---------------------------------------------------------------------------------------------------
                            Z-MATRIX (ANGSTROMS AND DEGREES)
   CD    Cent   Atom    N1       Length/X        N2       Alpha/Y        N3        Beta/Z          J
 ---------------------------------------------------------------------------------------------------
      1      1  H 
      2      2  C        1   1.082358(     1)
      3      3  C        2   1.380484(     2)      1  119.765(    16)
      4      4  C        2   1.413474(     3)      1  118.664(    17)      3 -177.568(    30)      0
      5      5  H        3   1.083302(     4)      2  120.867(    18)      1   -1.744(    31)      0
      6      6  C        3   1.404785(     5)      2  117.082(    19)      5 -174.769(    32)      0
      7      7  C        4   1.380484(     6)      2  121.525(    20)      1 -178.244(    33)      0
      8      8  H        4   1.082358(     7)      2  118.664(    21)      7  177.537(    34)      0
      9      9  C        6   1.427777(     8)      3  133.272(    22)      2  164.472(    35)      0
     10     10  C        6   1.410883(     9)      3  120.480(    23)      9 -175.797(    36)      0
     11     11  H        7   1.083302(    10)      4  120.867(    24)      2  175.768(    37)      0
     12     12  H        9   1.078500(    11)      6  117.805(    25)      3 -118.212(    38)      0
     13     13  C       10   1.427777(    12)      6  106.148(    26)      3 -159.865(    39)      0
     14     14  H        9   1.090262(    13)      6  122.404(    27)     12  153.392(    40)      0
     15     15  H       13   1.078500(    14)     10  117.805(    28)      6   58.019(    41)      0
     16     16  H       13   1.090262(    15)     10  122.404(    29)     15  153.392(    42)      0
 ---------------------------------------------------------------------------------------------------
                         Z-Matrix orientation:                         
 ---------------------------------------------------------------------
 Center     Atomic      Atomic             Coordinates (Angstroms)
 Number     Number       Type             X           Y           Z
 ---------------------------------------------------------------------
      1          1           0        0.000000    0.000000    0.000000
      2          6           0        0.000000    0.000000    1.082358
      3          6           0        1.198355    0.000000    1.767691
      4          6           0       -1.239130   -0.052639    1.760366
      5          1           0        2.142223   -0.028295    1.236789
      6          6           0        1.133752   -0.076078    3.168926
      7          6           0       -1.309760   -0.019540    3.138645
      8          1           0       -2.149877   -0.079602    1.176147
      9          6           0        2.097264   -0.379134    4.178058
     10          6           0       -0.096795    0.090472    3.838707
     11          1           0       -2.266716    0.008118    3.645609
     12          1           0        1.921516   -1.244039    4.797908
     13          6           0        0.227745    0.431587    5.186617
     14          1           0        3.143375   -0.083561    4.094632
     15          1           0        0.832472    1.309185    5.351812
     16          1           0       -0.403508    0.148248    6.029178
 ---------------------------------------------------------------------
                    Distance matrix (angstroms):
                    1          2          3          4          5
     1  H    0.000000
     2  C    1.082358   0.000000
     3  C    2.135600   1.380484   0.000000
     4  C    2.153393   1.413474   2.438064   0.000000
     5  H    2.473775   2.147968   1.083302   3.421735   0.000000
     6  C    3.366492   2.375909   1.404785   2.759557   2.180012
     7  C    3.401021   2.438067   2.858416   1.380484   3.941233
     8  H    2.451862   2.153393   3.401018   1.082358   4.292834
     9  C    4.690248   3.758406   2.600317   4.133201   2.962461
    10  C    3.840993   2.759531   2.444321   2.375902   3.434718
    11  H    4.292847   3.421743   3.941239   2.147968   5.024190
    12  H    5.315992   4.364076   3.354520   4.542661   3.769392
    13  C    5.209523   4.133168   3.580141   3.758376   4.413373
    14  H    5.162732   4.354490   3.033931   4.965491   3.028635
    15  H    5.572151   4.542600   3.833244   4.364010   4.520810
    16  H    6.044484   4.965463   4.555021   4.354466   5.429449
                    6          7          8          9         10
     6  C    0.000000
     7  C    2.444353   0.000000
     8  H    3.841015   2.135604   0.000000
     9  C    1.427777   3.580153   5.209548   0.000000
    10  C    1.410883   1.404804   3.366496   2.269269   0.000000
    11  H    3.434749   1.083302   2.473781   4.413365   2.180053
    12  H    2.153668   3.833235   5.572190   1.078500   2.602798
    13  C    2.269284   2.600313   4.690231   2.273667   1.427777
    14  H    2.212594   4.555043   6.044509   1.090262   3.254917
    15  H    2.602829   3.354516   5.315949   2.414088   2.153668
    16  H    3.254925   3.033913   5.162715   3.155732   2.212594
                   11         12         13         14         15
    11  H    0.000000
    12  H    4.520727   0.000000
    13  C    2.962493   2.414058   0.000000
    14  H    5.429467   1.825992   3.155742   0.000000
    15  H    3.769466   2.830509   1.078500   2.976662   0.000000
    16  H    3.028627   2.976613   1.090262   4.046799   1.825992
                   16
    16  H    0.000000
 Symmetry turned off by external request.
 Stoichiometry    C8H8
 Framework group  C1[X(C8H8)]
 Deg. of freedom    42
 Full point group                 C1      NOp   1
 Rotational constants (GHZ):           3.8283228           2.2219872           1.4547077
 Standard basis: def2TZVP (5D, 7F)
 The following finite field(s) will be applied:
 An electric field of              0.0048  0.0002  0.0088
   296 basis functions,   472 primitive gaussians,   336 cartesian basis functions
    28 alpha electrons       28 beta electrons
       nuclear repulsion energy       329.5944699030 Hartrees.
 NAtoms=   16 NActive=   16 NUniq=   16 SFac= 1.00D+00 NAtFMM=   60 NAOKFM=F Big=F
 Integral buffers will be    131072 words long.
 Raffenetti 2 integral format.
 Two-electron integral symmetry is turned off.
 One-electron integrals computed using PRISM.
   1 Symmetry operations used in ECPInt.
 ECPInt:  NShTT=    7260 NPrTT=   21936 LenC2=    7161 LenP2D=   17610.
 LDataN:  DoStor=T MaxTD1= 6 Len=  172
 NBasis=   296 RedAO= T EigKep=  1.20D-05  NBF=   296
 NBsUse=   296 1.00D-06 EigRej= -1.00D+00 NBFU=   296
 The nuclear repulsion energy is now       332.5657824916 hartrees.
 Initial guess from the checkpoint file:  "checkpoint.chk"
 B after Tr=     0.000000   -0.000000    0.000000
         Rot=    1.000000    0.000000   -0.000000   -0.000000 Ang=   0.00 deg.
 Requested convergence on RMS density matrix=1.00D-08 within 128 cycles.
 Requested convergence on MAX density matrix=1.00D-06.
 Requested convergence on             energy=1.00D-06.
 No special actions if energy rises.
 SCF Done:  E(RB3LYP) =  -309.684028720     A.U. after   11 cycles
            NFock= 11  Conv=0.35D-08     -V/T= 2.0054
 DoSCS=F DFT=T ScalE2(SS,OS)=  1.000000  1.000000
 Range of M.O.s used for correlation:     1   296
 NBasis=   296 NAE=    28 NBE=    28 NFC=     0 NFV=     0
 NROrb=    296 NOA=    28 NOB=    28 NVA=   268 NVB=   268

 **** Warning!!: The largest alpha MO coefficient is  0.63247235D+02

   1 Symmetry operations used in ECPInt.
 ECPInt:  NShTT=    7260 NPrTT=   21936 LenC2=    7161 LenP2D=   17610.
 LDataN:  DoStor=T MaxTD1= 7 Len=  274
 Symmetrizing basis deriv contribution to polar:
 IMax=3 JMax=2 DiffMx= 0.00D+00
 G2DrvN: will do    17 centers at a time, making    1 passes.
 Calling FoFCou, ICntrl=  3107 FMM=F I1Cent=   0 AccDes= 0.00D+00.
 End of G2Drv F.D. properties file   721 does not exist.
 End of G2Drv F.D. properties file   722 does not exist.
 End of G2Drv F.D. properties file   788 does not exist.
          IDoAtm=1111111111111111
          Differentiating once with respect to nuclear coordinates.
 Keep R1 ints in memory in canonical form, NReq=985231126.
          There are    51 degrees of freedom in the 1st order CPHF.  IDoFFX=6 NUNeed=     0.
     45 vectors produced by pass  0 Test12= 1.47D-14 1.96D-09 XBig12= 1.53D-01 1.65D-01.
 AX will form    45 AO Fock derivatives at one time.
     45 vectors produced by pass  1 Test12= 1.47D-14 1.96D-09 XBig12= 2.70D-02 3.30D-02.
     45 vectors produced by pass  2 Test12= 1.47D-14 1.96D-09 XBig12= 4.26D-04 2.63D-03.
     45 vectors produced by pass  3 Test12= 1.47D-14 1.96D-09 XBig12= 1.47D-06 1.61D-04.
     45 vectors produced by pass  4 Test12= 1.47D-14 1.96D-09 XBig12= 2.77D-09 7.70D-06.
     43 vectors produced by pass  5 Test12= 1.47D-14 1.96D-09 XBig12= 4.78D-12 2.26D-07.
     11 vectors produced by pass  6 Test12= 1.47D-14 1.96D-09 XBig12= 6.49D-15 9.33D-09.
 InvSVY:  IOpt=1 It=  1 EMax= 6.66D-16
 Solved reduced A of dimension   279 with    51 vectors.
 End of Minotr F.D. properties file   721 does not exist.
 End of Minotr F.D. properties file   722 does not exist.
 End of Minotr F.D. properties file   788 does not exist.
   1 Symmetry operations used in ECPInt.
 ECPInt:  NShTT=    7260 NPrTT=   21936 LenC2=    7161 LenP2D=   17610.
 LDataN:  DoStor=T MaxTD1= 8 Len=  415
 Calling FoFJK, ICntrl=    100147 FMM=F ISym2X=0 I1Cent= 0 IOpClX= 0 NMat=1 NMatS=1 NMatT=0.
 -------------------------------------------------------------------
 Center     Atomic                   Forces (Hartrees/Bohr)
 Number     Number              X              Y              Z
 -------------------------------------------------------------------
      1        1          -0.000095872   -0.000023182    0.000015845
      2        6           0.000393153    0.000028666   -0.000174557
      3        6           0.000104334   -0.000034229    0.000015409
      4        6          -0.000360597   -0.000036538    0.000240232
      5        1          -0.000103767   -0.000068776   -0.000116956
      6        6           0.000254014    0.000515445   -0.000242843
      7        6          -0.000038031    0.000045821    0.000092335
      8        1           0.000062679    0.000018610   -0.000069139
      9        6           0.000183290    0.000101248    0.000190454
     10        6          -0.000342937   -0.000508658    0.000080993
     11        1          -0.000038050    0.000061494   -0.000152700
     12        1           0.000127733   -0.000139224   -0.000005346
     13        6           0.000042708   -0.000097066    0.000268062
     14        1           0.000486740   -0.000209145   -0.000414694
     15        1          -0.000069324    0.000142116    0.000099694
     16        1          -0.000606072    0.000203417    0.000173210
 -------------------------------------------------------------------
 Cartesian Forces:  Max     0.000606072 RMS     0.000222363
 -----------------------------------------------------------------------------------------------
                       Internal Coordinate Forces (Hartree/Bohr or radian)
  Cent   Atom   N1       Length/X         N2         Alpha/Y        N3         Beta/Z          J
 -----------------------------------------------------------------------------------------------
      1  H 
      2  C        1  -0.000016(     1)
      3  C        2   0.000090(     2)      1  -0.000728(    16)
      4  C        2   0.000378(     3)      1  -0.000907(    17)      3  -0.000394(    30)     0
      5  H        3  -0.000031(     4)      2  -0.000315(    18)      1   0.000621(    31)     0
      6  C        3   0.000145(     5)      2   0.000452(    19)      5   0.000740(    32)     0
      7  C        4  -0.000054(     6)      2   0.000495(    20)      1   0.000241(    33)     0
      8  H        4  -0.000016(     7)      2  -0.000189(    21)      7  -0.000028(    34)     0
      9  C        6   0.000429(     8)      3  -0.002837(    22)      2   0.000725(    35)     0
     10  C        6   0.001115(     9)      3  -0.002521(    23)      9   0.001324(    36)     0
     11  H        7  -0.000036(    10)      4  -0.000311(    24)      2  -0.000113(    37)     0
     12  H        9   0.000088(    11)      6   0.000164(    25)      3  -0.000556(    38)     0
     13  C       10   0.000426(    12)      6   0.002816(    26)      3   0.000299(    39)     0
     14  H        9   0.000442(    13)      6  -0.000383(    27)     12  -0.000821(    40)     0
     15  H       13   0.000092(    14)     10   0.000160(    28)      6  -0.000554(    41)     0
     16  H       13   0.000432(    15)     10  -0.000383(    29)     15  -0.000811(    42)     0
 -----------------------------------------------------------------------------------------------
 Internal  Forces:  Max     0.002837420 RMS     0.000878011

 GradGradGradGradGradGradGradGradGradGradGradGradGradGradGradGradGradGrad
 Berny optimization.
 Search for a saddle point.
 Step number   1 out of a maximum of   41
 All quantities printed in internal units (Hartrees-Bohrs-Radians)
 Swapping is turned off.
 Second derivative matrix not updated -- analytic derivatives used.
 ITU=  0
     Eigenvalues ---   -0.42719   0.01845   0.02305   0.03687   0.04965
     Eigenvalues ---    0.06216   0.08727   0.10411   0.11377   0.18027
     Eigenvalues ---    0.21293   0.23442   0.24880   0.29537   0.32865
     Eigenvalues ---    0.34397   0.40214   0.46096   0.54828   0.55648
     Eigenvalues ---    0.58555   0.67756   0.70192   0.71862   0.72137
     Eigenvalues ---    0.73942   0.89876   0.93462   2.44344   3.33442
     Eigenvalues ---   31.23432
 Eigenvectors required to have negative eigenvalues:
                          A13       D12       D15       A9        R9
   1                    0.48582  -0.41629  -0.41540  -0.40436  -0.23192
                          A10       R10       D14       D9        A14
   1                   -0.20543   0.19665  -0.18066  -0.13249  -0.10903
 RFO step:  Lambda0=3.596205965D-05 Lambda=-5.75234608D-05.
 Linear search not attempted -- option 19 set.
 Variable       Old X    -DE/DX   Delta X   Delta X   Delta X     New X
                                 (Linear)    (Quad)   (Total)
    R2        2.04536  -0.00003   0.00000  -0.00005  -0.00005   2.04531
    R3        2.60874   0.00004   0.00000   0.00041   0.00041   2.60914
    R4        2.67108   0.00038   0.00000   0.00001   0.00001   2.67108
    R5        2.04714  -0.00007   0.00000  -0.00010  -0.00010   2.04705
    R6        2.65466   0.00015   0.00000  -0.00049  -0.00049   2.65417
    R9        2.69811   0.00085   0.00000   0.00285   0.00285   2.70096
   R10        2.66618   0.00112   0.00000  -0.00038  -0.00038   2.66580
   R12        2.03807   0.00018   0.00000   0.00053   0.00053   2.03860
   R14        2.06030   0.00087   0.00000   0.00159   0.00159   2.06189
    A3        2.09029  -0.00073   0.00000   0.00076   0.00076   2.09105
    A4        2.07108  -0.00110   0.00000  -0.00077  -0.00077   2.07031
    A5        2.10952  -0.00063   0.00000  -0.00138  -0.00138   2.10815
    A6        2.04347   0.00045   0.00000   0.00010   0.00010   2.04357
    A7        2.12101   0.00049   0.00000   0.00000   0.00000   2.12101
    A9        2.32603  -0.00284   0.00000  -0.00007  -0.00007   2.32596
   A10        2.10278  -0.00252   0.00000   0.00077   0.00077   2.10355
   A12        2.05609   0.00032   0.00000  -0.00116  -0.00116   2.05493
   A13        1.85264   0.00282   0.00000  -0.00091  -0.00091   1.85173
   A14        2.13635  -0.00077   0.00000  -0.00363  -0.00363   2.13271
    D4       -3.09914  -0.00039   0.00000  -0.00001  -0.00001  -3.09915
    D5       -0.03043   0.00062   0.00000  -0.00040  -0.00040  -0.03084
    D6       -3.05030   0.00074   0.00000   0.00003   0.00003  -3.05027
    D7       -3.11094   0.00024   0.00000  -0.00226  -0.00226  -3.11320
    D8        3.09860  -0.00003   0.00000   0.00013   0.00013   3.09873
    D9        2.87058   0.00073   0.00000   0.00116   0.00116   2.87174
   D10       -3.06823   0.00132   0.00000   0.00434   0.00434  -3.06389
   D11        3.06773  -0.00011   0.00000  -0.00021  -0.00021   3.06752
   D12       -2.06319  -0.00056   0.00000   0.01670   0.01670  -2.04649
   D13       -2.79017   0.00030   0.00000  -0.00500  -0.00500  -2.79517
   D14        2.67719  -0.00163   0.00000  -0.01893  -0.01893   2.65826
   D15        1.01262  -0.00055   0.00000   0.01292   0.01292   1.02554
         Item               Value     Threshold  Converged?
 Maximum Force            0.002837     0.000450     NO 
 RMS     Force            0.001068     0.000300     NO 
 Maximum Displacement     0.018931     0.001800     NO 
 RMS     Displacement     0.005344     0.001200     NO 
 Predicted change in Energy=-1.080225D-05
 GradGradGradGradGradGradGradGradGradGradGradGradGradGradGradGradGradGrad

 ---------------------------------------------------------------------------------------------------
                            Z-MATRIX (ANGSTROMS AND DEGREES)
   CD    Cent   Atom    N1       Length/X        N2       Alpha/Y        N3        Beta/Z          J
 ---------------------------------------------------------------------------------------------------
      1      1  H 
      2      2  C        1   1.082334(     1)
      3      3  C        2   1.380699(     2)      1  119.809(    16)
      4      4  C        2   1.413477(     3)      1  118.620(    17)      3 -177.568(    30)      0
      5      5  H        3   1.083252(     4)      2  120.788(    18)      1   -1.767(    31)      0
      6      6  C        3   1.404525(     5)      2  117.088(    19)      5 -174.767(    32)      0
      7      7  C        4   1.380699(     6)      2  121.525(    20)      1 -178.373(    33)      0
      8      8  H        4   1.082334(     7)      2  118.620(    21)      7  177.544(    34)      0
      9      9  C        6   1.429285(     8)      3  133.268(    22)      2  164.538(    35)      0
     10     10  C        6   1.410681(     9)      3  120.524(    23)      9 -175.548(    36)      0
     11     11  H        7   1.083252(    10)      4  120.788(    24)      2  175.756(    37)      0
     12     12  H        9   1.078780(    11)      6  117.739(    25)      3 -117.255(    38)      0
     13     13  C       10   1.429285(    12)      6  106.096(    26)      3 -160.152(    39)      0
     14     14  H        9   1.091104(    13)      6  122.195(    27)     12  152.307(    40)      0
     15     15  H       13   1.078780(    14)     10  117.739(    28)      6   58.759(    41)      0
     16     16  H       13   1.091104(    15)     10  122.195(    29)     15  152.307(    42)      0
 ---------------------------------------------------------------------------------------------------
                         Z-Matrix orientation:                         
 ---------------------------------------------------------------------
 Center     Atomic      Atomic             Coordinates (Angstroms)
 Number     Number       Type             X           Y           Z
 ---------------------------------------------------------------------
      1          1           0        0.000000    0.000000    0.000000
      2          6           0        0.000000    0.000000    1.082334
      3          6           0        1.198021    0.000000    1.768684
      4          6           0       -1.239657   -0.052650    1.759383
      5          1           0        2.141511   -0.028693    1.237235
      6          6           0        1.132494   -0.075592    3.169641
      7          6           0       -1.311219   -0.022246    3.137891
      8          1           0       -2.149552   -0.077533    1.173790
      9          6           0        2.096660   -0.377652    4.180581
     10          6           0       -0.098884    0.084657    3.839007
     11          1           0       -2.269145    0.005611    3.642902
     12          1           0        1.928355   -1.251915    4.789764
     13          6           0        0.225199    0.421754    5.189634
     14          1           0        3.143009   -0.080959    4.093215
     15          1           0        0.817469    1.307594    5.357774
     16          1           0       -0.411013    0.136148    6.028782
 ---------------------------------------------------------------------
                    Distance matrix (angstroms):
                    1          2          3          4          5
     1  H    0.000000
     2  C    1.082334   0.000000
     3  C    2.136234   1.380699   0.000000
     4  C    2.152893   1.413477   2.438264   0.000000
     5  H    2.473387   2.147297   1.083252   3.421331   0.000000
     6  C    3.366731   2.375943   1.404525   2.759792   2.180483
     7  C    3.400904   2.438259   2.858585   1.380699   3.941304
     8  H    2.450381   2.152893   3.400905   1.082334   4.291810
     9  C    4.692106   3.760019   2.601427   4.135074   2.964299
    10  C    3.841213   2.759745   2.444457   2.375932   3.435321
    11  H    4.291828   3.421339   3.941315   2.147297   5.024171
    12  H    5.312973   4.362440   3.350762   4.545079   3.763266
    13  C    5.211611   4.135034   3.581502   3.759985   4.415496
    14  H    5.161344   4.353213   3.031993   4.965414   3.026937
    15  H    5.575285   4.545047   3.838775   4.362391   4.529635
    16  H    6.044310   4.965362   4.555871   4.353167   5.431526
                    6          7          8          9         10
     6  C    0.000000
     7  C    2.444502   0.000000
     8  H    3.841256   2.136246   0.000000
     9  C    1.429285   3.581502   5.211638   0.000000
    10  C    1.410681   1.404546   3.366738   2.269541   0.000000
    11  H    3.435363   1.083252   2.473404   4.415455   2.180536
    12  H    2.154514   3.838699   5.575281   1.078780   2.607693
    13  C    2.269561   2.601417   4.692092   2.271476   1.429285
    14  H    2.212508   4.555902   6.044357   1.091104   3.256059
    15  H    2.607752   3.350772   5.312957   2.421191   2.154514
    16  H    3.256061   3.031948   5.161310   3.157255   2.212508
                   11         12         13         14         15
    11  H    0.000000
    12  H    4.529422   0.000000
    13  C    2.964339   2.421116   0.000000
    14  H    5.431546   1.825296   3.157288   0.000000
    15  H    3.763393   2.847418   1.078780   2.989202   0.000000
    16  H    3.026898   2.989068   1.091104   4.052731   1.825296
                   16
    16  H    0.000000
 Symmetry turned off by external request.
 Stoichiometry    C8H8
 Framework group  C1[X(C8H8)]
 Deg. of freedom    42
 Full point group                 C1      NOp   1
 Rotational constants (GHZ):           3.8279882           2.2209889           1.4537555
 Standard basis: def2TZVP (5D, 7F)
 The following finite field(s) will be applied:
 An electric field of              0.0048  0.0002  0.0088
   296 basis functions,   472 primitive gaussians,   336 cartesian basis functions
    28 alpha electrons       28 beta electrons
       nuclear repulsion energy       329.5273761663 Hartrees.
 NAtoms=   16 NActive=   16 NUniq=   16 SFac= 1.00D+00 NAtFMM=   60 NAOKFM=F Big=F
 Integral buffers will be    131072 words long.
 Raffenetti 2 integral format.
 Two-electron integral symmetry is turned off.
 One-electron integrals computed using PRISM.
   1 Symmetry operations used in ECPInt.
 ECPInt:  NShTT=    7260 NPrTT=   21936 LenC2=    7161 LenP2D=   17608.
 LDataN:  DoStor=T MaxTD1= 6 Len=  172
 NBasis=   296 RedAO= T EigKep=  1.19D-05  NBF=   296
 NBsUse=   296 1.00D-06 EigRej= -1.00D+00 NBFU=   296
 The nuclear repulsion energy is now       332.4984282236 hartrees.
 Initial guess from the checkpoint file:  "checkpoint.chk"
 B after Tr=     0.001609    0.007491    0.000533
         Rot=    0.999999   -0.001063    0.000350   -0.000772 Ang=  -0.16 deg.
 Requested convergence on RMS density matrix=1.00D-08 within 128 cycles.
 Requested convergence on MAX density matrix=1.00D-06.
 Requested convergence on             energy=1.00D-06.
 No special actions if energy rises.
 SCF Done:  E(RB3LYP) =  -309.684039432     A.U. after   10 cycles
            NFock= 10  Conv=0.41D-08     -V/T= 2.0054
   1 Symmetry operations used in ECPInt.
 ECPInt:  NShTT=    7260 NPrTT=   21936 LenC2=    7161 LenP2D=   17608.
 LDataN:  DoStor=T MaxTD1= 7 Len=  274
 Calling FoFJK, ICntrl=      2127 FMM=F ISym2X=0 I1Cent= 0 IOpClX= 0 NMat=1 NMatS=1 NMatT=0.
 -------------------------------------------------------------------
 Center     Atomic                   Forces (Hartrees/Bohr)
 Number     Number              X              Y              Z
 -------------------------------------------------------------------
      1        1          -0.000002592   -0.000005485   -0.000000214
      2        6           0.000002223   -0.000009503   -0.000000520
      3        6           0.000002744    0.000009308    0.000003970
      4        6          -0.000001323    0.000000020    0.000004500
      5        1           0.000002093    0.000000341   -0.000002658
      6        6           0.000002317    0.000013460   -0.000000427
      7        6           0.000007208    0.000002405   -0.000000655
      8        1          -0.000001606   -0.000000424    0.000002826
      9        6          -0.000003297   -0.000008655    0.000003987
     10        6          -0.000010141   -0.000006289   -0.000007397
     11        1           0.000003623   -0.000000645   -0.000000153
     12        1          -0.000005394   -0.000000915    0.000000048
     13        6          -0.000020833    0.000006406    0.000008795
     14        1           0.000009638    0.000005781   -0.000002889
     15        1           0.000011748    0.000002261   -0.000006147
     16        1           0.000003593   -0.000008066   -0.000003067
 -------------------------------------------------------------------
 Cartesian Forces:  Max     0.000020833 RMS     0.000006173
 -----------------------------------------------------------------------------------------------
                       Internal Coordinate Forces (Hartree/Bohr or radian)
  Cent   Atom   N1       Length/X         N2         Alpha/Y        N3         Beta/Z          J
 -----------------------------------------------------------------------------------------------
      1  H 
      2  C        1   0.000000(     1)
      3  C        2  -0.000009(     2)      1   0.000069(    16)
      4  C        2  -0.000004(     3)      1   0.000064(    17)      3  -0.000002(    30)     0
      5  H        3   0.000003(     4)      2  -0.000003(    18)      1   0.000007(    31)     0
      6  C        3  -0.000007(     5)      2  -0.000075(    19)      5   0.000006(    32)     0
      7  C        4  -0.000001(     6)      2  -0.000031(    20)      1   0.000003(    33)     0
      8  H        4  -0.000000(     7)      2   0.000007(    21)      7   0.000001(    34)     0
      9  C        6   0.000002(     8)      3   0.000001(    22)      2   0.000009(    35)     0
     10  C        6   0.000009(     9)      3  -0.000036(    23)      9   0.000018(    36)     0
     11  H        7  -0.000003(    10)      4   0.000003(    24)      2   0.000001(    37)     0
     12  H        9   0.000002(    11)      6  -0.000010(    25)      3  -0.000001(    38)     0
     13  C       10  -0.000001(    12)      6   0.000001(    26)      3  -0.000002(    39)     0
     14  H        9   0.000011(    13)      6  -0.000006(    27)     12   0.000003(    40)     0
     15  H       13   0.000007(    14)     10  -0.000014(    28)      6  -0.000001(    41)     0
     16  H       13  -0.000002(    15)     10  -0.000007(    29)     15   0.000015(    42)     0
 -----------------------------------------------------------------------------------------------
 Internal  Forces:  Max     0.000074791 RMS     0.000020901

 GradGradGradGradGradGradGradGradGradGradGradGradGradGradGradGradGradGrad
 Berny optimization.
 Search for a saddle point.
 Step number   2 out of a maximum of   41
 All quantities printed in internal units (Hartrees-Bohrs-Radians)
 Swapping is turned off.
 Update second derivatives using D2CorN and points    1    2
 ITU=  0  0
     Eigenvalues ---   -0.42722   0.01839   0.02305   0.03686   0.04965
     Eigenvalues ---    0.06257   0.08727   0.10413   0.11376   0.18027
     Eigenvalues ---    0.21294   0.23443   0.24881   0.29537   0.32866
     Eigenvalues ---    0.34397   0.40214   0.46096   0.54828   0.55646
     Eigenvalues ---    0.58555   0.67755   0.70191   0.71862   0.72137
     Eigenvalues ---    0.73940   0.89877   0.93464   2.44344   3.33441
     Eigenvalues ---   31.23432
 Eigenvectors required to have negative eigenvalues:
                          A13       D12       D15       A9        R9
   1                    0.48582  -0.41630  -0.41539  -0.40436  -0.23193
                          A10       R10       D14       D9        A14
   1                   -0.20542   0.19662  -0.18076  -0.13246  -0.10898
 RFO step:  Lambda0=1.205521794D-11 Lambda= 0.00000000D+00.
 Linear search not attempted -- option 19 set.
 Variable       Old X    -DE/DX   Delta X   Delta X   Delta X     New X
                                 (Linear)    (Quad)   (Total)
    R2        2.04531   0.00000   0.00000  -0.00000  -0.00000   2.04531
    R3        2.60914  -0.00001   0.00000   0.00000   0.00000   2.60914
    R4        2.67108  -0.00000   0.00000   0.00000   0.00000   2.67109
    R5        2.04705  -0.00000   0.00000   0.00000   0.00000   2.04705
    R6        2.65417  -0.00001   0.00000   0.00000   0.00000   2.65417
    R9        2.70096   0.00000   0.00000   0.00002   0.00002   2.70097
   R10        2.66580   0.00001   0.00000   0.00000   0.00000   2.66580
   R12        2.03860   0.00001   0.00000   0.00001   0.00001   2.03861
   R14        2.06189   0.00001   0.00000   0.00001   0.00001   2.06189
    A3        2.09105   0.00007   0.00000   0.00000   0.00000   2.09105
    A4        2.07031   0.00007   0.00000   0.00000   0.00000   2.07031
    A5        2.10815   0.00000   0.00000   0.00000   0.00000   2.10815
    A6        2.04357  -0.00007   0.00000  -0.00000  -0.00000   2.04357
    A7        2.12101  -0.00003   0.00000   0.00000   0.00000   2.12101
    A9        2.32596   0.00000   0.00000  -0.00000  -0.00000   2.32596
   A10        2.10355  -0.00004   0.00000   0.00001   0.00001   2.10355
   A12        2.05493  -0.00002   0.00000  -0.00003  -0.00003   2.05490
   A13        1.85173   0.00000   0.00000  -0.00001  -0.00001   1.85172
   A14        2.13271  -0.00001   0.00000   0.00001   0.00001   2.13272
    D4       -3.09915  -0.00000   0.00000   0.00001   0.00001  -3.09913
    D5       -0.03084   0.00001   0.00000   0.00001   0.00001  -0.03083
    D6       -3.05027   0.00001   0.00000  -0.00003  -0.00003  -3.05029
    D7       -3.11320   0.00000   0.00000  -0.00002  -0.00002  -3.11322
    D8        3.09873   0.00000   0.00000   0.00002   0.00002   3.09875
    D9        2.87174   0.00001   0.00000  -0.00014  -0.00014   2.87160
   D10       -3.06389   0.00002   0.00000   0.00021   0.00021  -3.06368
   D11        3.06752   0.00000   0.00000   0.00004   0.00004   3.06756
   D12       -2.04649  -0.00000   0.00000   0.00008   0.00008  -2.04641
   D13       -2.79517  -0.00000   0.00000  -0.00012  -0.00012  -2.79529
   D14        2.65826   0.00002   0.00000   0.00019   0.00019   2.65845
   D15        1.02554  -0.00000   0.00000  -0.00008  -0.00008   1.02546
         Item               Value     Threshold  Converged?
 Maximum Force            0.000075     0.000450     YES
 RMS     Force            0.000025     0.000300     YES
 Maximum Displacement     0.000212     0.001800     YES
 RMS     Displacement     0.000065     0.001200     YES
 Predicted change in Energy=-3.522439D-09
 Optimization completed.
    -- Stationary point found.
                       ----------------------------
                       !   Optimized Parameters   !
                       ! (Angstroms and Degrees)  !
 ----------------------                            ----------------------
 !      Name          Value   Derivative information (Atomic Units)     !
 ------------------------------------------------------------------------
 !       R2          1.0823   -DE/DX =    0.0                           !
 !       R3          1.3807   -DE/DX =    0.0                           !
 !       R4          1.4135   -DE/DX =    0.0                           !
 !       R5          1.0833   -DE/DX =    0.0                           !
 !       R6          1.4045   -DE/DX =    0.0                           !
 !       R9          1.4293   -DE/DX =    0.0                           !
 !       R10         1.4107   -DE/DX =    0.0                           !
 !       R12         1.0788   -DE/DX =    0.0                           !
 !       R14         1.0911   -DE/DX =    0.0                           !
 !       A3        119.8085   -DE/DX =    0.0001                        !
 !       A4        118.6198   -DE/DX =    0.0001                        !
 !       A5        120.7878   -DE/DX =    0.0                           !
 !       A6        117.088    -DE/DX =   -0.0001                        !
 !       A7        121.5251   -DE/DX =    0.0                           !
 !       A9        133.2679   -DE/DX =    0.0                           !
 !       A10       120.5243   -DE/DX =    0.0                           !
 !       A12       117.7386   -DE/DX =    0.0                           !
 !       A13       106.0963   -DE/DX =    0.0                           !
 !       A14       122.1954   -DE/DX =    0.0                           !
 !       D4       -177.568    -DE/DX =    0.0                           !
 !       D5         -1.7669   -DE/DX =    0.0                           !
 !       D6       -174.7674   -DE/DX =    0.0                           !
 !       D7       -178.3732   -DE/DX =    0.0                           !
 !       D8        177.544    -DE/DX =    0.0                           !
 !       D9        164.5384   -DE/DX =    0.0                           !
 !       D10      -175.5482   -DE/DX =    0.0                           !
 !       D11       175.7561   -DE/DX =    0.0                           !
 !       D12      -117.2552   -DE/DX =    0.0                           !
 !       D13      -160.1515   -DE/DX =    0.0                           !
 !       D14       152.3069   -DE/DX =    0.0                           !
 !       D15        58.7589   -DE/DX =    0.0                           !
 ------------------------------------------------------------------------
 GradGradGradGradGradGradGradGradGradGradGradGradGradGradGradGradGradGrad

 ---------------------------------------------------------------------------------------------------
                            Z-MATRIX (ANGSTROMS AND DEGREES)
   CD    Cent   Atom    N1       Length/X        N2       Alpha/Y        N3        Beta/Z          J
 ---------------------------------------------------------------------------------------------------
      1      1  H 
      2      2  C        1   1.082334(     1)
      3      3  C        2   1.380699(     2)      1  119.809(    16)
      4      4  C        2   1.413477(     3)      1  118.620(    17)      3 -177.568(    30)      0
      5      5  H        3   1.083252(     4)      2  120.788(    18)      1   -1.767(    31)      0
      6      6  C        3   1.404525(     5)      2  117.088(    19)      5 -174.767(    32)      0
      7      7  C        4   1.380699(     6)      2  121.525(    20)      1 -178.373(    33)      0
      8      8  H        4   1.082334(     7)      2  118.620(    21)      7  177.544(    34)      0
      9      9  C        6   1.429285(     8)      3  133.268(    22)      2  164.538(    35)      0
     10     10  C        6   1.410681(     9)      3  120.524(    23)      9 -175.548(    36)      0
     11     11  H        7   1.083252(    10)      4  120.788(    24)      2  175.756(    37)      0
     12     12  H        9   1.078780(    11)      6  117.739(    25)      3 -117.255(    38)      0
     13     13  C       10   1.429285(    12)      6  106.096(    26)      3 -160.152(    39)      0
     14     14  H        9   1.091104(    13)      6  122.195(    27)     12  152.307(    40)      0
     15     15  H       13   1.078780(    14)     10  117.739(    28)      6   58.759(    41)      0
     16     16  H       13   1.091104(    15)     10  122.195(    29)     15  152.307(    42)      0
 ---------------------------------------------------------------------------------------------------
                         Z-Matrix orientation:                         
 ---------------------------------------------------------------------
 Center     Atomic      Atomic             Coordinates (Angstroms)
 Number     Number       Type             X           Y           Z
 ---------------------------------------------------------------------
      1          1           0        0.000000    0.000000    0.000000
      2          6           0        0.000000    0.000000    1.082334
      3          6           0        1.198021    0.000000    1.768684
      4          6           0       -1.239657   -0.052650    1.759383
      5          1           0        2.141511   -0.028693    1.237235
      6          6           0        1.132494   -0.075592    3.169641
      7          6           0       -1.311219   -0.022246    3.137891
      8          1           0       -2.149552   -0.077533    1.173790
      9          6           0        2.096660   -0.377652    4.180581
     10          6           0       -0.098884    0.084657    3.839007
     11          1           0       -2.269145    0.005611    3.642902
     12          1           0        1.928355   -1.251915    4.789764
     13          6           0        0.225199    0.421754    5.189634
     14          1           0        3.143009   -0.080959    4.093215
     15          1           0        0.817469    1.307594    5.357774
     16          1           0       -0.411013    0.136148    6.028782
 ---------------------------------------------------------------------
                    Distance matrix (angstroms):
                    1          2          3          4          5
     1  H    0.000000
     2  C    1.082334   0.000000
     3  C    2.136234   1.380699   0.000000
     4  C    2.152893   1.413477   2.438264   0.000000
     5  H    2.473387   2.147297   1.083252   3.421331   0.000000
     6  C    3.366731   2.375943   1.404525   2.759792   2.180483
     7  C    3.400904   2.438259   2.858585   1.380699   3.941304
     8  H    2.450381   2.152893   3.400905   1.082334   4.291810
     9  C    4.692106   3.760019   2.601427   4.135074   2.964299
    10  C    3.841213   2.759745   2.444457   2.375932   3.435321
    11  H    4.291828   3.421339   3.941315   2.147297   5.024171
    12  H    5.312973   4.362440   3.350762   4.545079   3.763266
    13  C    5.211611   4.135034   3.581502   3.759985   4.415496
    14  H    5.161344   4.353213   3.031993   4.965414   3.026937
    15  H    5.575285   4.545047   3.838775   4.362391   4.529635
    16  H    6.044310   4.965362   4.555871   4.353167   5.431526
                    6          7          8          9         10
     6  C    0.000000
     7  C    2.444502   0.000000
     8  H    3.841256   2.136246   0.000000
     9  C    1.429285   3.581502   5.211638   0.000000
    10  C    1.410681   1.404546   3.366738   2.269541   0.000000
    11  H    3.435363   1.083252   2.473404   4.415455   2.180536
    12  H    2.154514   3.838699   5.575281   1.078780   2.607693
    13  C    2.269561   2.601417   4.692092   2.271476   1.429285
    14  H    2.212508   4.555902   6.044357   1.091104   3.256059
    15  H    2.607752   3.350772   5.312957   2.421191   2.154514
    16  H    3.256061   3.031948   5.161310   3.157255   2.212508
                   11         12         13         14         15
    11  H    0.000000
    12  H    4.529422   0.000000
    13  C    2.964339   2.421116   0.000000
    14  H    5.431546   1.825296   3.157288   0.000000
    15  H    3.763393   2.847418   1.078780   2.989202   0.000000
    16  H    3.026898   2.989068   1.091104   4.052731   1.825296
                   16
    16  H    0.000000
 Symmetry turned off by external request.
 Stoichiometry    C8H8
 Framework group  C1[X(C8H8)]
 Deg. of freedom    42
 Full point group                 C1      NOp   1
 Rotational constants (GHZ):           3.8279882           2.2209889           1.4537555
 1\1\GINC-BHC0068\PTS\RB3LYP\def2TZVP\C8H8\DHANAWAY\11-Jun-2022\1\\# Op
 t=(TS, CalcFC, noeigentest, Z-matrix, MaxStep=10) geom=allcheckpoint g
 uess=read Field=read NoSymm B3LYP/Def2TZVP freq=noraman pop=none\\ts_z
 mat_initalOpt\\0,1\H\C,1,R2\C,2,R3,1,A3\C,2,R4,1,A4,3,D4,0\H,3,R5,2,A5
 ,1,D5,0\C,3,R6,2,A6,5,D6,0\C,4,R3,2,A7,1,D7,0\H,4,R2,2,A4,7,D8,0\C,6,R
 9,3,A9,2,D9,0\C,6,R10,3,A10,9,D10,0\H,7,R5,4,A5,2,D11,0\H,9,R12,6,A12,
 3,D12,0\C,10,R9,6,A13,3,D13,0\H,9,R14,6,A14,12,D14,0\H,13,R12,10,A12,6
 ,D15,0\H,13,R14,10,A14,15,D14,0\\R2=1.08233369\R3=1.38069918\R4=1.4134
 7686\R5=1.08325153\R6=1.40452451\R9=1.42928542\R10=1.41068142\R12=1.07
 87799\R14=1.0911035\A3=119.80852933\A4=118.61981665\A5=120.78782457\A6
 =117.08803872\A7=121.52509405\A9=133.26789948\A10=120.52430353\A12=117
 .73864428\A13=106.09629313\A14=122.19537341\D4=-177.56802406\D5=-1.766
 88063\D6=-174.76739261\D7=-178.37315254\D8=177.5439935\D9=164.53841748
 \D10=-175.54817838\D11=175.75606659\D12=-117.25516632\D13=-160.1515059
 9\D14=152.30694245\D15=58.75885045\\Version=ES64L-G16RevA.03\HF=-309.6
 840394\RMSD=4.074e-09\RMSF=6.173e-06\Dipole=-0.5856557,-0.0183713,-1.0
 662211\PG=C01 [X(C8H8)]\\@


 BE CAREFUL NOT TO BECOME TOO GOOD OF A SONGBIRD OR 
 THEY'LL THROW YOU INTO A CAGE.

                                    -- SNOOPY TO WOODSTOCK
 Job cpu time:       0 days  1 hours 33 minutes  8.4 seconds.
 Elapsed time:       0 days  0 hours  7 minutes 46.8 seconds.
 File lengths (MBytes):  RWF=    121 Int=      0 D2E=      0 Chk=     32 Scr=      1
 Normal termination of Gaussian 16 at Sat Jun 11 00:31:09 2022.
 Link1:  Proceeding to internal job step number  2.
 --------------------------------------------------------------------
 #N Geom=AllCheck Guess=TCheck SCRF=Check GenChk RB3LYP/def2TZVP Freq
 --------------------------------------------------------------------
 1/5=1,8=10,10=4,11=1,29=7,30=1,38=1,40=1/1,3;
 2/12=2,15=1,40=1/2;
 3/5=44,7=101,11=2,14=-4,25=1,30=1,70=2,71=2,74=-5,116=1,140=1/1,2,3;
 4/5=101/1;
 5/5=2,38=6,98=1/2;
 8/6=4,10=90,11=11/1;
 11/6=1,8=1,9=11,15=111,16=1,31=1/1,2,10;
 10/6=1,31=1/2;
 7/8=1,10=1,25=1,30=1/1,2,3,16;
 1/5=1,8=10,10=4,11=1,30=1/3;
 99//99;
 Structure from the checkpoint file:  "checkpoint.chk"
 -----------------
 ts_zmat_initalOpt
 -----------------
 Charge =  0 Multiplicity = 1
 Z-Matrix found in chk file.
 H
 C,1,R2
 C,2,R3,1,A3
 C,2,R4,1,A4,3,D4,0
 H,3,R5,2,A5,1,D5,0
 C,3,R6,2,A6,5,D6,0
 C,4,R3,2,A7,1,D7,0
 H,4,R2,2,A4,7,D8,0
 C,6,R9,3,A9,2,D9,0
 C,6,R10,3,A10,9,D10,0
 H,7,R5,4,A5,2,D11,0
 H,9,R12,6,A12,3,D12,0
 C,10,R9,6,A13,3,D13,0
 H,9,R14,6,A14,12,D14,0
 H,13,R12,10,A12,6,D15,0
 H,13,R14,10,A14,15,D14,0
      Variables:
 R2=1.08233369
 R3=1.38069918
 R4=1.41347686
 R5=1.08325153
 R6=1.40452451
 R9=1.42928542
 R10=1.41068142
 R12=1.0787799
 R14=1.0911035
 A3=119.80852933
 A4=118.61981665
 A5=120.78782457
 A6=117.08803872
 A7=121.52509405
 A9=133.26789948
 A10=120.52430353
 A12=117.73864428
 A13=106.09629313
 A14=122.19537341
 D4=-177.56802406
 D5=-1.76688063
 D6=-174.76739261
 D7=-178.37315254
 D8=177.5439935
 D9=164.53841748
 D10=-175.54817838
 D11=175.75606659
 D12=-117.25516632
 D13=-160.15150599
 D14=152.30694245
 D15=58.75885045
 Recover connectivity data from disk.

 GradGradGradGradGradGradGradGradGradGradGradGradGradGradGradGradGradGrad
 Berny optimization.
 Initialization pass.
                       ----------------------------
                       !    Initial Parameters    !
                       ! (Angstroms and Degrees)  !
 ----------------------                            ----------------------
 !      Name          Value   Derivative information (Atomic Units)     !
 ------------------------------------------------------------------------
 !       R2          1.0823   calculate D2E/DX2 analytically            !
 !       R3          1.3807   calculate D2E/DX2 analytically            !
 !       R4          1.4135   calculate D2E/DX2 analytically            !
 !       R5          1.0833   calculate D2E/DX2 analytically            !
 !       R6          1.4045   calculate D2E/DX2 analytically            !
 !       R9          1.4293   calculate D2E/DX2 analytically            !
 !       R10         1.4107   calculate D2E/DX2 analytically            !
 !       R12         1.0788   calculate D2E/DX2 analytically            !
 !       R14         1.0911   calculate D2E/DX2 analytically            !
 !       A3        119.8085   calculate D2E/DX2 analytically            !
 !       A4        118.6198   calculate D2E/DX2 analytically            !
 !       A5        120.7878   calculate D2E/DX2 analytically            !
 !       A6        117.088    calculate D2E/DX2 analytically            !
 !       A7        121.5251   calculate D2E/DX2 analytically            !
 !       A9        133.2679   calculate D2E/DX2 analytically            !
 !       A10       120.5243   calculate D2E/DX2 analytically            !
 !       A12       117.7386   calculate D2E/DX2 analytically            !
 !       A13       106.0963   calculate D2E/DX2 analytically            !
 !       A14       122.1954   calculate D2E/DX2 analytically            !
 !       D4       -177.568    calculate D2E/DX2 analytically            !
 !       D5         -1.7669   calculate D2E/DX2 analytically            !
 !       D6       -174.7674   calculate D2E/DX2 analytically            !
 !       D7       -178.3732   calculate D2E/DX2 analytically            !
 !       D8        177.544    calculate D2E/DX2 analytically            !
 !       D9        164.5384   calculate D2E/DX2 analytically            !
 !       D10      -175.5482   calculate D2E/DX2 analytically            !
 !       D11       175.7561   calculate D2E/DX2 analytically            !
 !       D12      -117.2552   calculate D2E/DX2 analytically            !
 !       D13      -160.1515   calculate D2E/DX2 analytically            !
 !       D14       152.3069   calculate D2E/DX2 analytically            !
 !       D15        58.7589   calculate D2E/DX2 analytically            !
 ------------------------------------------------------------------------
 Trust Radius=1.00D-01 FncErr=1.00D-07 GrdErr=1.00D-07 EigMax=2.50D+02 EigMin=1.00D-04
 Number of steps in this run=      2 maximum allowed number of steps=      2.
 Search for a saddle point of order  1.
 GradGradGradGradGradGradGradGradGradGradGradGradGradGradGradGradGradGrad

                          Input orientation:                          
 ---------------------------------------------------------------------
 Center     Atomic      Atomic             Coordinates (Angstroms)
 Number     Number       Type             X           Y           Z
 ---------------------------------------------------------------------
      1          1           0        0.000000    0.000000    0.000000
      2          6           0        0.000000    0.000000    1.082334
      3          6           0        1.198021    0.000000    1.768684
      4          6           0       -1.239657   -0.052650    1.759383
      5          1           0        2.141511   -0.028693    1.237235
      6          6           0        1.132494   -0.075592    3.169641
      7          6           0       -1.311219   -0.022246    3.137891
      8          1           0       -2.149552   -0.077533    1.173790
      9          6           0        2.096660   -0.377652    4.180581
     10          6           0       -0.098884    0.084657    3.839007
     11          1           0       -2.269145    0.005611    3.642902
     12          1           0        1.928355   -1.251915    4.789764
     13          6           0        0.225199    0.421754    5.189634
     14          1           0        3.143009   -0.080959    4.093215
     15          1           0        0.817469    1.307594    5.357774
     16          1           0       -0.411013    0.136148    6.028782
 ---------------------------------------------------------------------
                    Distance matrix (angstroms):
                    1          2          3          4          5
     1  H    0.000000
     2  C    1.082334   0.000000
     3  C    2.136234   1.380699   0.000000
     4  C    2.152893   1.413477   2.438264   0.000000
     5  H    2.473387   2.147297   1.083252   3.421331   0.000000
     6  C    3.366731   2.375943   1.404525   2.759792   2.180483
     7  C    3.400904   2.438259   2.858585   1.380699   3.941304
     8  H    2.450381   2.152893   3.400905   1.082334   4.291810
     9  C    4.692106   3.760019   2.601427   4.135074   2.964299
    10  C    3.841213   2.759745   2.444457   2.375932   3.435321
    11  H    4.291828   3.421339   3.941315   2.147297   5.024171
    12  H    5.312973   4.362440   3.350762   4.545079   3.763266
    13  C    5.211611   4.135034   3.581502   3.759985   4.415496
    14  H    5.161344   4.353213   3.031993   4.965414   3.026937
    15  H    5.575285   4.545047   3.838775   4.362391   4.529635
    16  H    6.044310   4.965362   4.555871   4.353167   5.431526
                    6          7          8          9         10
     6  C    0.000000
     7  C    2.444502   0.000000
     8  H    3.841256   2.136246   0.000000
     9  C    1.429285   3.581502   5.211638   0.000000
    10  C    1.410681   1.404546   3.366738   2.269541   0.000000
    11  H    3.435363   1.083252   2.473404   4.415455   2.180536
    12  H    2.154514   3.838699   5.575281   1.078780   2.607693
    13  C    2.269561   2.601417   4.692092   2.271476   1.429285
    14  H    2.212508   4.555902   6.044357   1.091104   3.256059
    15  H    2.607752   3.350772   5.312957   2.421191   2.154514
    16  H    3.256061   3.031948   5.161310   3.157255   2.212508
                   11         12         13         14         15
    11  H    0.000000
    12  H    4.529422   0.000000
    13  C    2.964339   2.421116   0.000000
    14  H    5.431546   1.825296   3.157288   0.000000
    15  H    3.763393   2.847418   1.078780   2.989202   0.000000
    16  H    3.026898   2.989068   1.091104   4.052731   1.825296
                   16
    16  H    0.000000
 Symmetry turned off by external request.
 Stoichiometry    C8H8
 Framework group  C1[X(C8H8)]
 Deg. of freedom    42
 Full point group                 C1      NOp   1
 Rotational constants (GHZ):           3.8279882           2.2209889           1.4537555
 Standard basis: def2TZVP (5D, 7F)
 The following finite field(s) will be applied:
 An electric field of              0.0048  0.0002  0.0088
   296 basis functions,   472 primitive gaussians,   336 cartesian basis functions
    28 alpha electrons       28 beta electrons
       nuclear repulsion energy       329.5273761663 Hartrees.
 NAtoms=   16 NActive=   16 NUniq=   16 SFac= 1.00D+00 NAtFMM=   60 NAOKFM=F Big=F
 Integral buffers will be    131072 words long.
 Raffenetti 2 integral format.
 Two-electron integral symmetry is turned off.
 One-electron integrals computed using PRISM.
   1 Symmetry operations used in ECPInt.
 ECPInt:  NShTT=    7260 NPrTT=   21936 LenC2=    7161 LenP2D=   17608.
 LDataN:  DoStor=T MaxTD1= 6 Len=  172
 NBasis=   296 RedAO= T EigKep=  1.19D-05  NBF=   296
 NBsUse=   296 1.00D-06 EigRej= -1.00D+00 NBFU=   296
 The nuclear repulsion energy is now       332.4984282236 hartrees.
 Initial guess from the checkpoint file:  "checkpoint.chk"
 B after Tr=     0.000000    0.000000    0.000000
         Rot=    1.000000    0.000000    0.000000    0.000000 Ang=   0.00 deg.
 Requested convergence on RMS density matrix=1.00D-08 within 128 cycles.
 Requested convergence on MAX density matrix=1.00D-06.
 Requested convergence on             energy=1.00D-06.
 No special actions if energy rises.
 SCF Done:  E(RB3LYP) =  -309.684039432     A.U. after    1 cycles
            NFock=  1  Conv=0.21D-08     -V/T= 2.0054
 DoSCS=F DFT=T ScalE2(SS,OS)=  1.000000  1.000000
 Range of M.O.s used for correlation:     1   296
 NBasis=   296 NAE=    28 NBE=    28 NFC=     0 NFV=     0
 NROrb=    296 NOA=    28 NOB=    28 NVA=   268 NVB=   268

 **** Warning!!: The largest alpha MO coefficient is  0.63091687D+02

   1 Symmetry operations used in ECPInt.
 ECPInt:  NShTT=    7260 NPrTT=   21936 LenC2=    7161 LenP2D=   17608.
 LDataN:  DoStor=T MaxTD1= 7 Len=  274
 Symmetrizing basis deriv contribution to polar:
 IMax=3 JMax=2 DiffMx= 0.00D+00
 G2DrvN: will do    17 centers at a time, making    1 passes.
 Calling FoFCou, ICntrl=  3107 FMM=F I1Cent=   0 AccDes= 0.00D+00.
 End of G2Drv F.D. properties file   721 does not exist.
 End of G2Drv F.D. properties file   722 does not exist.
 End of G2Drv F.D. properties file   788 does not exist.
          IDoAtm=1111111111111111
          Differentiating once with respect to electric field.
                with respect to dipole field.
          Differentiating once with respect to nuclear coordinates.
 Keep R1 ints in memory in canonical form, NReq=985231126.
          There are    51 degrees of freedom in the 1st order CPHF.  IDoFFX=6 NUNeed=     3.
     48 vectors produced by pass  0 Test12= 1.47D-14 1.96D-09 XBig12= 2.12D+02 9.15D+00.
 AX will form    48 AO Fock derivatives at one time.
     48 vectors produced by pass  1 Test12= 1.47D-14 1.96D-09 XBig12= 5.10D+01 1.17D+00.
     48 vectors produced by pass  2 Test12= 1.47D-14 1.96D-09 XBig12= 7.65D-01 1.69D-01.
     48 vectors produced by pass  3 Test12= 1.47D-14 1.96D-09 XBig12= 1.77D-03 5.20D-03.
     48 vectors produced by pass  4 Test12= 1.47D-14 1.96D-09 XBig12= 3.33D-06 3.24D-04.
     44 vectors produced by pass  5 Test12= 1.47D-14 1.96D-09 XBig12= 5.31D-09 1.14D-05.
     10 vectors produced by pass  6 Test12= 1.47D-14 1.96D-09 XBig12= 7.44D-12 3.64D-07.
      3 vectors produced by pass  7 Test12= 1.47D-14 1.96D-09 XBig12= 7.44D-15 1.04D-08.
 InvSVY:  IOpt=1 It=  1 EMax= 5.33D-15
 Solved reduced A of dimension   297 with    51 vectors.
 Isotropic polarizability for W=    0.000000       98.81 Bohr**3.
 End of Minotr F.D. properties file   721 does not exist.
 End of Minotr F.D. properties file   722 does not exist.
 End of Minotr F.D. properties file   788 does not exist.
   1 Symmetry operations used in ECPInt.
 ECPInt:  NShTT=    7260 NPrTT=   21936 LenC2=    7161 LenP2D=   17608.
 LDataN:  DoStor=T MaxTD1= 8 Len=  415
 Calling FoFJK, ICntrl=    100127 FMM=F ISym2X=0 I1Cent= 0 IOpClX= 0 NMat=1 NMatS=1 NMatT=0.
 Full mass-weighted force constant matrix:
 Low frequencies --- -623.7679   -4.1755   -0.0008   -0.0004    0.0002    5.4936
 Low frequencies ---   12.6765  223.9384  224.1181
 ******    1 imaginary frequencies (negative Signs) ****** 
 Diagonal vibrational polarizability:
        3.2421969       6.8805368       5.1281831
 Harmonic frequencies (cm**-1), IR intensities (KM/Mole), Raman scattering
 activities (A**4/AMU), depolarization ratios for plane and unpolarized
 incident light, reduced masses (AMU), force constants (mDyne/A),
 and normal coordinates:
                      1                      2                      3
                      A                      A                      A
 Frequencies --   -623.7679               223.9372               224.1009
 Red. masses --      2.1765                 2.8690                 3.2057
 Frc consts  --      0.4989                 0.0848                 0.0949
 IR Inten    --     18.6174                 1.3169                 4.9948
  Atom  AN      X      Y      Z        X      Y      Z        X      Y      Z
     1   1    -0.02   0.02  -0.01     0.00  -0.17  -0.01     0.01  -0.41  -0.02
     2   6    -0.03  -0.00  -0.01    -0.01  -0.09  -0.01     0.01  -0.18  -0.02
     3   6    -0.00  -0.03   0.00    -0.02  -0.16  -0.00     0.01   0.08  -0.02
     4   6     0.00   0.00  -0.03    -0.02   0.16  -0.01     0.02  -0.11  -0.00
     5   1    -0.00  -0.03  -0.00    -0.02  -0.27   0.00     0.01   0.04  -0.01
     6   6    -0.05   0.00  -0.05     0.00  -0.03   0.01    -0.00   0.21  -0.01
     7   6     0.00   0.03  -0.00    -0.01   0.11  -0.02     0.02   0.15  -0.01
     8   1    -0.00  -0.02  -0.02    -0.02   0.33  -0.01     0.02  -0.27   0.01
     9   6    -0.13   0.06   0.16     0.12   0.21  -0.03    -0.03  -0.06  -0.06
    10   6    -0.01  -0.00  -0.07     0.00  -0.07   0.01     0.01   0.20   0.00
    11   1     0.00   0.03  -0.00    -0.00   0.22  -0.01     0.01   0.17  -0.01
    12   1     0.09  -0.30  -0.28     0.35   0.22   0.06    -0.15  -0.16  -0.23
    13   6     0.21  -0.06  -0.02    -0.09  -0.15   0.05    -0.02  -0.16   0.10
    14   1    -0.17   0.31   0.38     0.04   0.45  -0.11     0.01  -0.20  -0.01
    15   1    -0.29   0.29  -0.09    -0.17  -0.12   0.17     0.03  -0.25   0.39
    16   1     0.41  -0.31   0.07    -0.11  -0.30  -0.01    -0.04  -0.41  -0.00
                      4                      5                      6
                      A                      A                      A
 Frequencies --    397.0142               431.7468               519.8804
 Red. masses --      2.7696                 2.9826                 3.0593
 Frc consts  --      0.2572                 0.3276                 0.4872
 IR Inten    --      6.8852                 5.2104                 0.9191
  Atom  AN      X      Y      Z        X      Y      Z        X      Y      Z
     1   1    -0.16   0.04   0.01    -0.07  -0.08   0.05    -0.00  -0.51   0.05
     2   6    -0.08   0.06   0.01    -0.06  -0.08   0.05     0.04  -0.20   0.05
     3   6     0.00  -0.10  -0.10    -0.00   0.18  -0.01     0.07   0.10  -0.01
     4   6    -0.05   0.06   0.06    -0.08  -0.08   0.02     0.02   0.20   0.06
     5   1    -0.08  -0.30  -0.24    -0.05   0.53  -0.12     0.07   0.06  -0.01
     6   6     0.14   0.08  -0.06     0.11  -0.13  -0.01     0.02   0.16  -0.03
     7   6     0.09  -0.10   0.05     0.01   0.18   0.00    -0.05  -0.10   0.06
     8   1    -0.09   0.05   0.12    -0.08  -0.08   0.03     0.04   0.51   0.02
     9   6    -0.03  -0.01   0.13     0.05  -0.02   0.11    -0.07  -0.01  -0.03
    10   6     0.13   0.08  -0.09     0.07  -0.13  -0.08    -0.03  -0.16   0.00
    11   1     0.16  -0.29   0.20     0.07   0.53   0.10    -0.04  -0.06   0.05
    12   1    -0.25  -0.03   0.04     0.06  -0.02   0.10    -0.23  -0.09  -0.19
    13   6    -0.13  -0.01  -0.05    -0.06  -0.02  -0.10     0.01   0.01  -0.08
    14   1     0.03  -0.13   0.40     0.03   0.11   0.27    -0.02  -0.18   0.05
    15   1    -0.17  -0.03   0.19    -0.05  -0.03  -0.11    -0.03   0.08  -0.30
    16   1    -0.32  -0.14  -0.24    -0.21   0.11  -0.17     0.05   0.19   0.01
                      7                      8                      9
                      A                      A                      A
 Frequencies --    577.2380               590.4090               655.0924
 Red. masses --      5.2631                 3.9070                 1.2810
 Frc consts  --      1.0332                 0.8024                 0.3239
 IR Inten    --      0.5112                 5.1432                14.8902
  Atom  AN      X      Y      Z        X      Y      Z        X      Y      Z
     1   1    -0.08   0.19   0.21     0.16  -0.15   0.19    -0.01  -0.02  -0.02
     2   6     0.13   0.09   0.21    -0.02   0.03   0.19     0.01  -0.02  -0.01
     3   6     0.24  -0.06  -0.04     0.00  -0.02   0.18     0.01   0.01  -0.04
     4   6     0.10  -0.08   0.23    -0.17   0.02  -0.09    -0.02   0.02  -0.00
     5   1     0.25  -0.10  -0.02    -0.06  -0.29   0.08     0.00   0.06  -0.06
     6   6    -0.07  -0.08  -0.12     0.08   0.10   0.11     0.01  -0.03  -0.01
     7   6    -0.16   0.07   0.18    -0.15  -0.03  -0.10    -0.04  -0.01  -0.01
     8   1     0.22  -0.19   0.05    -0.07  -0.16  -0.23    -0.01   0.02  -0.02
     9   6    -0.11   0.05  -0.14     0.17  -0.05   0.03    -0.06   0.06   0.04
    10   6    -0.07   0.08  -0.12    -0.05   0.10  -0.13    -0.01   0.03   0.01
    11   1    -0.15   0.10   0.20    -0.10  -0.30   0.01    -0.05  -0.06  -0.03
    12   1     0.06   0.06  -0.08     0.30  -0.21  -0.16    -0.27   0.40   0.46
    13   6    -0.06  -0.06  -0.17     0.07  -0.05  -0.16     0.07  -0.06  -0.02
    14   1    -0.16   0.21  -0.25     0.13   0.08  -0.01    -0.04   0.00   0.17
    15   1    -0.10  -0.07   0.01     0.30  -0.21  -0.17     0.54  -0.40   0.04
    16   1    -0.12  -0.22  -0.27     0.08   0.08  -0.11     0.16   0.00   0.06
                     10                     11                     12
                      A                      A                      A
 Frequencies --    664.6008               747.5349               780.0794
 Red. masses --      1.1044                 3.1478                 1.2385
 Frc consts  --      0.2874                 1.0364                 0.4440
 IR Inten    --      2.2705                 5.3677                56.5228
  Atom  AN      X      Y      Z        X      Y      Z        X      Y      Z
     1   1    -0.02  -0.15  -0.04    -0.02   0.19   0.00    -0.02   0.50  -0.01
     2   6     0.00   0.01  -0.04    -0.00   0.14   0.00     0.00  -0.05  -0.01
     3   6    -0.01   0.02  -0.02     0.01  -0.13  -0.02    -0.01  -0.07   0.01
     4   6     0.04   0.01   0.02     0.01  -0.14   0.00     0.01  -0.05   0.00
     5   1     0.00  -0.17   0.00    -0.01  -0.36  -0.05     0.02   0.39   0.03
     6   6    -0.03  -0.01  -0.02     0.05   0.24   0.01     0.00   0.05   0.01
     7   6     0.01   0.02   0.02    -0.03   0.13  -0.01    -0.01  -0.07   0.01
     8   1     0.02  -0.15   0.04     0.02  -0.19  -0.02    -0.01   0.50   0.01
     9   6    -0.02  -0.02  -0.00    -0.01   0.05  -0.00     0.01   0.00   0.01
    10   6     0.00  -0.01   0.03    -0.02  -0.23   0.05    -0.01   0.05  -0.01
    11   1     0.00  -0.17  -0.00    -0.04   0.36  -0.05    -0.02   0.39  -0.04
    12   1     0.21  -0.24  -0.25    -0.34   0.06  -0.09     0.07  -0.17  -0.21
    13   6    -0.01  -0.02   0.02     0.00  -0.05  -0.01    -0.00   0.00  -0.01
    14   1    -0.13   0.45   0.25     0.09  -0.28   0.14    -0.01   0.09   0.07
    15   1     0.32  -0.23  -0.03     0.11  -0.06  -0.33     0.22  -0.17   0.06
    16   1    -0.29   0.45  -0.03     0.06   0.28   0.15    -0.07   0.09  -0.04
                     13                     14                     15
                      A                      A                      A
 Frequencies --    814.5256               863.9303               869.2879
 Red. masses --      3.7078                 1.3094                 1.4862
 Frc consts  --      1.4494                 0.5758                 0.6617
 IR Inten    --      1.8702                17.0827                18.5690
  Atom  AN      X      Y      Z        X      Y      Z        X      Y      Z
     1   1     0.18  -0.03   0.05    -0.01   0.21  -0.01    -0.05  -0.15  -0.06
     2   6    -0.01   0.01   0.04     0.01  -0.04  -0.01    -0.00   0.02  -0.06
     3   6    -0.16   0.00   0.21     0.01  -0.07  -0.02    -0.02   0.01  -0.01
     4   6     0.04  -0.01   0.02    -0.01   0.04   0.00     0.05   0.02   0.03
     5   1    -0.09  -0.14   0.36     0.03   0.50  -0.01    -0.01  -0.01   0.03
     6   6    -0.09   0.00   0.05     0.00  -0.01   0.01    -0.00  -0.03   0.01
     7   6     0.27  -0.00  -0.02    -0.02   0.07  -0.01    -0.01   0.01   0.02
     8   1    -0.06   0.04   0.18     0.00  -0.21  -0.01     0.03  -0.15   0.07
     9   6    -0.16   0.08  -0.08    -0.02   0.07   0.04     0.01   0.07   0.10
    10   6     0.09  -0.00  -0.05     0.01   0.01   0.01    -0.01  -0.03  -0.00
    11   1     0.35   0.14   0.11    -0.01  -0.50   0.03    -0.02   0.00  -0.01
    12   1    -0.18   0.15   0.01    -0.02  -0.06  -0.13     0.14  -0.29  -0.37
    13   6     0.02  -0.09  -0.18     0.04  -0.07   0.01    -0.08   0.07  -0.06
    14   1    -0.14  -0.08  -0.32     0.08  -0.32  -0.26     0.10  -0.33  -0.29
    15   1     0.10  -0.15  -0.14    -0.09   0.05  -0.09     0.39  -0.29   0.09
    16   1    -0.20   0.07  -0.29    -0.25   0.31  -0.08     0.31  -0.33   0.08
                     16                     17                     18
                      A                      A                      A
 Frequencies --    882.6088               890.6341               965.5401
 Red. masses --      3.6567                 1.5689                 1.3429
 Frc consts  --      1.6783                 0.7333                 0.7376
 IR Inten    --      0.9547                41.6451                 4.6698
  Atom  AN      X      Y      Z        X      Y      Z        X      Y      Z
     1   1     0.12   0.07   0.23     0.02   0.21   0.03     0.04  -0.48   0.01
     2   6     0.00  -0.01   0.23    -0.00  -0.04   0.02     0.00   0.08   0.01
     3   6     0.14  -0.00  -0.02    -0.03  -0.07   0.04    -0.00  -0.09   0.00
     4   6    -0.19  -0.01  -0.12     0.02   0.04   0.01    -0.01   0.08  -0.01
     5   1     0.04  -0.04  -0.18     0.01   0.41   0.08     0.02   0.49   0.01
     6   6     0.02  -0.07  -0.09    -0.01   0.06  -0.00    -0.00   0.01  -0.00
     7   6     0.09  -0.00  -0.11     0.04   0.08  -0.00    -0.00  -0.09   0.00
     8   1    -0.13   0.06  -0.23     0.01  -0.21   0.03     0.02  -0.47  -0.03
     9   6    -0.15   0.09  -0.07     0.01  -0.08  -0.08     0.00   0.00  -0.02
    10   6     0.09  -0.07   0.03     0.01  -0.06  -0.01     0.00   0.01   0.00
    11   1     0.18  -0.03   0.06     0.07  -0.41   0.06    -0.01   0.49  -0.03
    12   1    -0.11  -0.17  -0.44    -0.06   0.05   0.07    -0.07   0.01  -0.03
    13   6    -0.02   0.10   0.16    -0.07   0.08  -0.04     0.02   0.00   0.01
    14   1    -0.12  -0.02  -0.15    -0.09   0.34   0.34    -0.00   0.03   0.10
    15   1     0.31  -0.16   0.33     0.10  -0.05  -0.01    -0.01   0.01   0.08
    16   1     0.06  -0.02   0.19     0.34  -0.34   0.12    -0.08   0.03  -0.05
                     19                     20                     21
                      A                      A                      A
 Frequencies --   1013.1726              1014.8464              1019.1480
 Red. masses --      1.4539                 1.5267                 1.8022
 Frc consts  --      0.8793                 0.9264                 1.1029
 IR Inten    --      2.3496                 0.0023                 0.1890
  Atom  AN      X      Y      Z        X      Y      Z        X      Y      Z
     1   1     0.12   0.05  -0.01     0.12  -0.54  -0.08    -0.16  -0.43   0.14
     2   6     0.02  -0.01  -0.01     0.03   0.10  -0.07    -0.06   0.06   0.13
     3   6    -0.06   0.02   0.06     0.04  -0.05   0.00    -0.08  -0.03  -0.01
     4   6     0.02  -0.01  -0.01    -0.08  -0.10  -0.01     0.14  -0.06   0.02
     5   1    -0.02  -0.10   0.15     0.14   0.27   0.16    -0.23   0.21  -0.27
     6   6    -0.00  -0.05  -0.03    -0.01   0.03   0.02     0.01  -0.05  -0.03
     7   6    -0.08   0.01   0.02    -0.02   0.05   0.03     0.03   0.03  -0.07
     8   1     0.08   0.04  -0.10    -0.14   0.54   0.05     0.20   0.43  -0.07
     9   6     0.05   0.06  -0.05    -0.03  -0.02   0.01     0.03   0.03  -0.01
    10   6     0.03  -0.05   0.02     0.02  -0.03   0.01    -0.03   0.05  -0.01
    11   1    -0.13  -0.10  -0.06     0.06  -0.26   0.21    -0.10  -0.22  -0.33
    12   1    -0.39   0.00  -0.26     0.11   0.01   0.09    -0.13  -0.01  -0.11
    13   6     0.07   0.06  -0.01     0.02   0.03  -0.02    -0.03  -0.03   0.02
    14   1     0.14  -0.15   0.42    -0.06   0.08  -0.12     0.07  -0.08   0.16
    15   1     0.01   0.01   0.46     0.02  -0.00   0.15    -0.02   0.01  -0.17
    16   1    -0.28  -0.16  -0.34    -0.07  -0.09  -0.12     0.10   0.09   0.15
                     22                     23                     24
                      A                      A                      A
 Frequencies --   1045.8429              1148.7505              1189.7841
 Red. masses --      1.5334                 1.5160                 1.1123
 Frc consts  --      0.9882                 1.1787                 0.9277
 IR Inten    --      9.1759                 1.4636                 0.0321
  Atom  AN      X      Y      Z        X      Y      Z        X      Y      Z
     1   1    -0.12   0.06   0.06     0.48   0.02  -0.01     0.59   0.02  -0.01
     2   6    -0.02  -0.01   0.06     0.06  -0.00  -0.01     0.06   0.00  -0.01
     3   6    -0.04  -0.01  -0.04    -0.11  -0.00   0.01    -0.01  -0.00  -0.01
     4   6     0.06   0.01   0.01     0.04  -0.00  -0.04    -0.04   0.00   0.05
     5   1    -0.17   0.00  -0.28    -0.32   0.02  -0.34    -0.19   0.00  -0.32
     6   6     0.01   0.08   0.03     0.06   0.00  -0.02     0.02  -0.01   0.01
     7   6    -0.02   0.01  -0.06    -0.07  -0.00   0.09    -0.00   0.00  -0.01
     8   1     0.12  -0.06  -0.06     0.27   0.01  -0.39    -0.33  -0.02   0.49
     9   6    -0.06  -0.06   0.04    -0.05  -0.01  -0.00    -0.01   0.00  -0.01
    10   6     0.02  -0.08   0.03     0.05   0.00  -0.04    -0.01   0.01   0.02
    11   1    -0.14  -0.01  -0.29     0.11   0.03   0.45    -0.17  -0.01  -0.33
    12   1     0.32   0.01   0.25     0.06  -0.00   0.03    -0.02  -0.03  -0.07
    13   6     0.07   0.06  -0.03    -0.02  -0.00   0.04    -0.01  -0.01  -0.02
    14   1    -0.15   0.15  -0.37    -0.08   0.06  -0.13    -0.02   0.03   0.03
    15   1     0.04  -0.00   0.41     0.01  -0.00  -0.06    -0.05   0.03  -0.06
    16   1    -0.23  -0.16  -0.32     0.07   0.07   0.13     0.03  -0.03   0.00
                     25                     26                     27
                      A                      A                      A
 Frequencies --   1236.2353              1323.1901              1328.7389
 Red. masses --      2.3567                 1.6674                 2.7846
 Frc consts  --      2.1220                 1.7200                 2.8967
 IR Inten    --      8.1460                 1.4148                 0.6221
  Atom  AN      X      Y      Z        X      Y      Z        X      Y      Z
     1   1    -0.14  -0.01  -0.05    -0.41  -0.01  -0.06    -0.31   0.00  -0.09
     2   6    -0.04   0.00  -0.05     0.02   0.00  -0.05    -0.08  -0.00  -0.08
     3   6    -0.04  -0.00   0.09     0.04  -0.00   0.06     0.10  -0.01   0.09
     4   6     0.02   0.00   0.06     0.05   0.00   0.01    -0.02  -0.00  -0.11
     5   1     0.20  -0.00   0.52    -0.21  -0.00  -0.41    -0.12   0.02  -0.32
     6   6     0.19  -0.01  -0.04     0.05  -0.02   0.13     0.17  -0.05   0.10
     7   6    -0.10  -0.00  -0.01    -0.03  -0.00  -0.07     0.02   0.01   0.13
     8   1    -0.03  -0.01   0.14    -0.17   0.00   0.37     0.09  -0.01  -0.31
     9   6    -0.10  -0.00  -0.03    -0.02   0.01  -0.05    -0.07   0.02  -0.07
[...]
   zz         0.123055D+03      0.182349D+02      0.202890D+02

 ----------------------------------------------------------------------

 Dipole orientation:
     1          0.00000000          0.00000000         -0.00000000
     6         -0.98457528          0.03088548         -1.79247537
     6          0.37540973          0.05924168         -4.01896712
     6         -3.65339296          0.14061258         -1.78455916
     1          2.42181673          0.10519835         -3.99627772
     6         -1.00699280          0.24157068         -6.27735594
     6         -5.02614673          0.12197820         -4.00330400
     1         -4.62761520          0.16425799          0.01367393
     6         -0.32741486          0.84821859         -8.82005651
     6         -3.65666680         -0.05113402         -6.27032282
     1         -7.07240891          0.07673922         -3.96905540
     1         -1.15394717          2.51628679         -9.65088555
     6         -4.35097510         -0.64716315         -8.81155467
     1          1.48300969          0.29278449         -9.63567472
     1         -3.52940762         -2.31181952         -9.65406884
     1         -6.16602964         -0.08822222         -9.61438665

 Electric dipole moment (dipole orientation):
 (Debye = 10**-18 statcoulomb cm , SI units = C m)
                  (au)            (Debye)         (10**-30 SI)
   Tot        0.121662D+01      0.309234D+01      0.103149D+02
   x          0.000000D+00      0.000000D+00      0.000000D+00
   y          0.000000D+00      0.000000D+00      0.000000D+00
   z          0.121662D+01      0.309234D+01      0.103149D+02

 Dipole polarizability, Alpha (dipole orientation).
 (esu units = cm**3 , SI units = C**2 m**2 J**-1)
 Alpha(0;0):
               (au)            (10**-24 esu)      (10**-40 SI)
   iso        0.988103D+02      0.146422D+02      0.162916D+02
   aniso      0.642519D+02      0.952115D+01      0.105937D+02
   xx         0.112676D+03      0.166968D+02      0.185777D+02
   yx         0.697259D+01      0.103323D+01      0.114963D+01
   yy         0.574789D+02      0.851750D+01      0.947699D+01
   zx         0.510489D-01      0.756467D-02      0.841683D-02
   zy        -0.163781D+00     -0.242698D-01     -0.270038D-01
   zz         0.126276D+03      0.187122D+02      0.208201D+02

 ----------------------------------------------------------------------
 1\1\GINC-BHC0068\Freq\RB3LYP\def2TZVP\C8H8\DHANAWAY\11-Jun-2022\1\\#N 
 Geom=AllCheck Guess=TCheck SCRF=Check GenChk RB3LYP/def2TZVP Freq\\ts_
 zmat_initalOpt\\0,1\H\C,1,R2\C,2,R3,1,A3\C,2,R4,1,A4,3,D4,0\H,3,R5,2,A
 5,1,D5,0\C,3,R6,2,A6,5,D6,0\C,4,R3,2,A7,1,D7,0\H,4,R2,2,A4,7,D8,0\C,6,
 R9,3,A9,2,D9,0\C,6,R10,3,A10,9,D10,0\H,7,R5,4,A5,2,D11,0\H,9,R12,6,A12
 ,3,D12,0\C,10,R9,6,A13,3,D13,0\H,9,R14,6,A14,12,D14,0\H,13,R12,10,A12,
 6,D15,0\H,13,R14,10,A14,15,D14,0\\R2=1.08233369\R3=1.38069918\R4=1.413
 47686\R5=1.08325153\R6=1.40452451\R9=1.42928542\R10=1.41068142\R12=1.0
 787799\R14=1.0911035\A3=119.80852933\A4=118.61981665\A5=120.78782457\A
 6=117.08803872\A7=121.52509405\A9=133.26789948\A10=120.52430353\A12=11
 7.73864428\A13=106.09629313\A14=122.19537341\D4=-177.56802406\D5=-1.76
 688063\D6=-174.76739261\D7=-178.37315254\D8=177.5439935\D9=164.5384174
 8\D10=-175.54817838\D11=175.75606659\D12=-117.25516632\D13=-160.151505
 99\D14=152.30694245\D15=58.75885045\\Version=ES64L-G16RevA.03\HF=-309.
 6840394\RMSD=2.058e-09\RMSF=6.179e-06\ZeroPoint=0.1305575\Thermal=0.13
 66118\Dipole=-0.5856568,-0.0183717,-1.0662216\DipoleDeriv=0.082261,-0.
 0008031,-0.0000749,-0.0119891,0.1394393,0.0152187,0.0112874,0.0008244,
 0.0010597,-0.0830073,0.0000725,-0.1383446,-0.0096427,-0.0976082,-0.009
 9076,-0.0220509,-0.0011449,0.0991899,0.1052634,-0.0214797,-0.1114432,0
 .0080127,-0.1291656,0.0102935,-0.1043421,0.0222732,0.0445298,0.118369,
 0.0062816,0.1077895,0.0058887,-0.0970581,0.0150823,-0.0079456,0.000414
 ,-0.1033874,-0.0562633,0.0042822,0.0778345,0.0453965,0.1259445,0.00419
 14,0.0305841,0.0037721,0.0369185,-0.2474645,-0.0556948,-0.0048393,-0.1
 457835,-0.0393831,-0.143096,0.1524803,-0.0642173,0.0355799,0.1609065,-
 0.0280833,-0.0677831,-0.0018631,-0.1293318,-0.0106694,-0.0762137,0.007
 5464,-0.0102718,0.020368,-0.0032235,-0.0287504,-0.0216988,0.1391883,-0
 .000272,-0.0397325,-0.0019639,0.0636456,0.1111868,0.1465852,-0.151606,
 -0.0209785,-0.0084757,-0.0432516,-0.2314619,-0.0161402,0.0499373,-0.11
 5389,0.0281941,0.2347182,0.0421765,-0.0319766,0.2013679,0.0786396,0.08
 11276,-0.1037989,-0.0393435,-0.0019631,0.0416076,0.0209262,0.1251154,-
 0.0422373,0.08778,-0.0069084,0.0216355,-0.0619014,-0.0236984,-0.026941
 9,0.0603088,-0.0494216,0.0353598,-0.0251331,0.0527848,0.0079881,0.2409
 261,0.092701,-0.1492918,0.0267721,-0.0084596,0.0375282,-0.0661669,-0.1
 168751,-0.0794455,-0.2518382,-0.0434364,-0.0906201,0.0400152,0.0579413
 ,0.0765835,0.118432,0.0308357,0.126214,0.0117331,-0.0561749,0.0238665,
 0.00401,-0.0523777,-0.0701219,0.020087,-0.008774,-0.0633839,0.0041933,
 -0.0435595,0.2838789,-0.0415509,0.0556291,-0.0760695,0.0737563,0.01644
 56,-0.1264108\Polar=115.8315172,-5.877591,57.5445083,5.7880035,4.22611
 23,123.0549584\PG=C01 [X(C8H8)]\NImag=1\\0.06014957,0.00113225,0.02662
 092,-0.00021935,-0.00027221,0.35926260,-0.05927213,-0.00114048,0.00039
 098,0.63858506,-0.00072644,-0.03911768,0.00036991,0.01122571,0.1398085
 8,0.00027908,-0.00031373,-0.34079319,0.03132647,-0.00391322,0.73347416
 ,0.00339454,0.00202172,0.00144085,-0.29893485,-0.00284535,-0.12839239,
 0.73019784,-0.00059412,0.00391824,-0.00009837,-0.00094148,-0.06035373,
 -0.00287349,-0.01350078,0.13083177,-0.02874411,-0.00007558,-0.01071860
 ,-0.06650648,-0.00551726,-0.18379758,-0.03534188,-0.01442724,0.6414757
 2,0.00341496,-0.00090153,-0.00154742,-0.24490386,-0.00815823,0.0967646
 1,-0.05681050,0.00232478,-0.02354731,0.67683334,-0.00004771,0.00367966
 ,-0.00015187,-0.00974700,-0.06736846,0.00342644,-0.00033993,0.00772385
 ,0.00241447,0.01740778,0.14016711,0.02900317,0.00200984,-0.01025108,0.
 03068467,0.00452941,-0.16313715,0.01854483,-0.00219610,0.05820484,0.05
 589927,0.00602589,0.69495635,0.00109797,-0.00042406,-0.00010388,-0.019
 39793,0.00091367,0.01591807,-0.26629138,0.00745224,0.11687459,-0.00256
 948,0.00048545,-0.00418687,0.28272482,-0.00007781,-0.00461735,-0.00005
 650,-0.00143249,0.00348598,-0.00090648,0.00990763,-0.03557743,0.000768
 98,0.00003113,0.00825991,-0.00069381,-0.00779628,0.02428162,0.00047132
 ,-0.00003293,0.00085439,-0.01501646,0.00050349,0.01216000,0.11979456,-
 0.00201896,-0.12674367,-0.00304269,-0.00004730,-0.00102843,-0.12857185
 ,0.00304116,0.12841262,-0.00500779,0.00189136,-0.00256997,0.01091204,0
 .00253158,-0.03549108,-0.12191598,-0.01319285,0.01810567,-0.00749258,-
 0.00195356,0.01083887,0.00295837,-0.00243020,0.02919723,0.59199195,0.0
 0013603,0.00823194,0.00012861,0.00026612,0.00561094,0.00372540,0.00260
 656,-0.06026114,0.01806990,-0.00233800,-0.00665243,-0.00078081,0.00018
 461,0.00262447,-0.00156663,-0.06311214,0.17980913,-0.00301936,0.000636
 30,0.00044075,-0.07500576,0.00510748,-0.03520788,0.04071899,0.00891298
 ,-0.28699130,0.02892528,-0.00085651,-0.04352576,-0.00038589,-0.0042846
 8,-0.00906939,-0.00155122,-0.04590541,0.70891385,-0.00453728,-0.000893
 79,0.00230783,0.02675279,-0.00128551,0.03032699,-0.01165744,0.00081913
 ,-0.02279740,-0.12888910,0.00320611,0.04293700,0.00012798,0.00072247,-
 0.00057874,-0.04168678,-0.00135208,0.01408086,0.69945617,-0.00038297,0
 .00508540,0.00006323,0.00500064,0.00770541,-0.00113324,-0.00248402,-0.
 00307186,-0.00332369,0.00060447,-0.06032631,-0.00375591,0.00000021,-0.
 00039861,-0.00002290,0.01232616,0.00764045,0.00400364,0.01081509,0.132
 25564,0.00236747,-0.00077867,0.00052422,0.07227154,-0.00088161,-0.0253
 4076,-0.02469203,0.00268760,-0.04225046,-0.01893797,-0.00152914,-0.353
 95258,-0.00039329,0.00050962,-0.00075548,-0.01245601,0.00153750,0.0516
 3259,-0.05557421,0.03069972,0.67088482,0.00095290,0.00015114,0.0000516
 8,-0.01871081,-0.00054322,-0.01579828,-0.00308352,-0.00028906,0.003232
 98,-0.25853947,-0.00639787,-0.12785783,-0.00093411,0.00001158,-0.00071
 351,0.00041470,0.00005411,0.00115168,0.00583900,-0.00014571,0.00304583
 ,0.27172821,0.00018280,-0.00305678,-0.00000047,-0.00211519,0.00364849,
 -0.00033957,0.00014458,0.00511530,0.00107269,-0.00606689,-0.03926991,-
 0.00282840,-0.00015790,0.00002916,-0.00013933,-0.00145302,-0.00033451,
 -0.00003608,0.00056519,0.00389711,-0.00200898,0.00704738,0.02679313,-0
 .00032023,-0.00006886,0.00078499,0.01478835,0.00049749,0.01190836,0.00
 329494,0.00018898,-0.00095823,-0.12796735,-0.00354088,-0.14141109,0.00
 081619,-0.00008037,0.00038598,0.00035736,0.00019454,-0.00080501,-0.027
 18718,-0.00018150,-0.01312928,0.13594475,0.00367558,0.14753626,0.00062
 459,0.00021370,0.00034792,0.00254852,0.00079182,0.00382630,0.00728350,
 0.00267646,-0.00809028,-0.00023365,-0.00063851,-0.00149723,0.00058787,
 -0.00008343,-0.00016712,-0.19455227,0.02142502,-0.10663210,0.00069939,
 0.00391478,0.00491325,0.00010442,-0.00025395,-0.00027689,0.56567011,0.
 00032477,0.00061640,0.00012275,-0.00164265,0.00599825,0.00001565,0.005
 47329,0.00024293,0.00294197,0.00157169,-0.00117815,-0.00086021,0.00017
 336,-0.00296880,-0.00048156,0.03305057,-0.07203759,0.05136009,0.000076
 42,0.00431339,0.00011320,0.00001365,-0.00070526,-0.00011804,0.08220250
 ,0.38192041,-0.00020842,-0.00171481,-0.00011400,0.02140423,-0.00145688
 ,-0.00167584,-0.02590907,0.01964947,-0.03729550,-0.00783517,0.00063929
 ,0.01217316,0.00016722,0.00084205,0.00127617,-0.08742524,0.04520608,-0
 .16195706,-0.00454690,-0.00904996,-0.00846998,-0.00028130,0.00131398,0
 .00024654,0.10866180,-0.22401071,0.34024682,-0.00112431,-0.00076055,0.
 00017440,-0.05102855,-0.00085893,0.00086881,0.02350491,0.00477349,0.05
 597736,0.02866638,-0.00409072,-0.06349987,0.00185452,0.00157304,-0.001
 96883,-0.24506714,0.02094715,0.05447382,-0.26499214,-0.01841776,-0.051
 06851,0.00138173,0.00042901,0.00109119,-0.06391752,0.00222062,-0.00483
 191,0.67586996,-0.00015889,-0.00031967,-0.00012486,-0.00155661,-0.0065
 7565,0.00254315,-0.00114262,0.00738939,0.00052736,-0.00324237,0.005316
 24,-0.00437240,-0.00058766,0.00613466,0.00099547,0.02783237,-0.0852428
 7,-0.00786356,-0.01805828,-0.06088232,-0.01450038,-0.00008727,0.008180
 60,-0.00049215,0.01424081,0.00581808,-0.00104105,0.01183495,0.18385710
 ,-0.00065188,0.00125741,0.00071936,-0.01718340,0.00204299,-0.00006861,
 0.02972140,-0.01265301,-0.01334578,-0.02397045,-0.00652015,-0.05266676
 ,-0.00115134,-0.00038129,-0.00407663,0.08374185,-0.01973362,-0.1552721
 0,-0.07391642,0.00344529,-0.14329050,0.00157765,-0.00223280,-0.0058995
 2,-0.03328827,0.00376043,0.03558248,0.05125813,0.08868151,0.62107265,-
 0.00004815,0.00002736,-0.00014404,0.00179731,0.00021237,-0.00023419,-0
 .00005218,0.00000852,-0.00068397,0.00250877,0.00003768,-0.00094116,-0.
 00005737,-0.00001997,0.00014940,-0.00091690,-0.00133133,-0.00370647,-0
 .27549812,0.00524092,0.11397445,0.00075946,-0.00012727,0.00025350,-0.0
 0135245,0.00011783,0.00056970,-0.01870073,0.00148855,0.01517557,0.2908
 3595,0.00010406,0.00003523,0.00001970,0.00048838,0.00826003,0.00003350
 ,-0.00004320,-0.00041771,-0.00089557,0.00065920,0.00351535,0.00137862,
 -0.00009166,-0.00166975,-0.00000660,0.00101884,0.00609938,-0.00133142,
 0.00414259,-0.03580086,-0.00912980,0.00006642,-0.00460702,0.00023148,-
 0.00086438,0.00017719,-0.00045579,0.00169218,0.00279554,0.00477422,-0.
 00615567,0.02436864,0.00138186,0.00021308,-0.00050659,-0.00136994,-0.0
 0070934,-0.00539888,-0.00051038,0.00000221,-0.00055357,0.03001583,-0.0
 0095798,-0.00975330,0.00010698,0.00012204,0.00010531,-0.00295916,-0.00
 024929,-0.00127386,0.11102979,-0.00560280,-0.11737564,-0.00032761,0.00
 050100,0.00118030,-0.00046727,0.00015154,0.00045850,-0.01436594,0.0007
 3494,0.01242752,-0.12338898,0.00550105,0.12025515,-0.00006462,-0.00005
 953,-0.00005352,0.00150320,-0.00096651,-0.00001364,-0.00171208,0.00106
 832,-0.00155973,-0.00114906,-0.00001614,0.00080362,0.00002405,0.000388
 14,-0.00015625,0.00707040,0.01464932,-0.00643476,-0.00021080,-0.001883
 52,-0.00106296,0.00000279,0.00024110,0.00004374,-0.05300398,-0.0500130
 6,0.01518793,-0.00104879,0.00327740,0.00392389,0.00000375,0.00010328,0
 .00001828,0.06146350,-0.00000023,-0.00025624,-0.00000499,-0.00554283,0
 .00048797,-0.00015741,0.00260301,0.00028516,0.00506507,0.00242582,0.00
 006398,-0.00402003,0.00008359,-0.00033437,-0.00004821,-0.01244229,0.00
 282160,-0.00878115,0.00238639,0.00214834,0.00349737,0.00007479,-0.0003
 4705,-0.00005387,-0.05172801,-0.23362537,0.16655248,-0.00048208,-0.000
 53677,-0.01058608,-0.00011664,-0.00010600,0.00003116,0.04956935,0.2388
 8121,-0.00028463,-0.00032288,-0.00008778,-0.00575488,-0.00055444,-0.00
 121859,-0.00013135,0.00136628,0.00710374,0.00262792,0.00028479,-0.0036
 6536,0.00022821,-0.00000360,0.00005727,-0.00989072,0.02052350,-0.02505
 562,0.00147958,0.00216184,0.00254922,0.00004122,-0.00027133,-0.0000392
 7,0.01994937,0.14587295,-0.10748232,0.00144310,-0.00418039,-0.01185376
 ,-0.00017007,-0.00007379,0.00001900,-0.02424711,-0.15763015,0.13539333
 ,0.00047241,-0.00122947,-0.00002547,0.01276762,-0.00069638,0.00057816,
 -0.00606410,0.00939851,-0.00904109,-0.01193075,0.00170682,0.01202917,-
 0.00011817,-0.00005786,0.00136983,0.02368639,0.00997215,0.05145688,-0.
 00856353,-0.01600071,-0.03579830,0.00001857,0.00153535,-0.00061589,0.0
 2548923,-0.00302941,-0.04181922,-0.08252827,-0.02688092,-0.01434983,0.
 00107651,-0.00069058,0.00049639,-0.01005533,0.01359707,0.01548607,0.30
 157116,0.00012017,-0.00072983,0.00006603,0.00190611,-0.00117729,-0.000
 83938,-0.00016971,0.00446172,-0.00037905,-0.00125599,0.00604165,0.0016
 7781,-0.00005978,0.00019386,-0.00018593,-0.00120504,0.00554381,-0.0045
 7510,-0.00003730,-0.00039865,-0.00712518,0.00006421,0.00064518,-0.0003
 5059,-0.00715811,-0.02547767,-0.00137879,-0.02620494,-0.07504435,-0.06
 031341,0.00055298,-0.00297858,0.00020505,0.00679600,-0.00627016,-0.009
 21747,0.23045723,0.39020726,-0.00004525,-0.00048361,-0.00009825,0.0068
 3403,0.00028304,-0.00083052,0.00062135,0.00147042,-0.00184559,-0.00546
 444,0.00020998,0.01275142,0.00031754,0.00095501,-0.00079369,0.02334192
 ,-0.01243016,-0.05172332,-0.01825761,-0.01359356,-0.02079622,-0.000040
 23,0.00074365,0.00046241,-0.01176866,0.00698997,-0.00921608,-0.0337406
 3,-0.04746518,-0.27099211,0.00013767,-0.00029686,0.00079282,-0.0024060
 8,0.00043262,0.00379944,-0.06366254,0.05617589,0.59612044,-0.00008778,
 0.00006528,-0.00003999,-0.00201150,0.00052458,-0.00039212,0.00121166,0
 .00030210,0.00267048,0.00093336,0.00004436,-0.00142158,0.00011078,-0.0
 0056848,-0.00069733,-0.01707891,-0.00375740,0.00424731,0.00015299,0.00
 183908,0.00215133,0.00004888,-0.00022180,-0.00005742,-0.28676977,-0.07
 649739,0.01693790,-0.00465338,-0.00166090,-0.00764083,-0.00042510,-0.0
 0026293,-0.00018487,-0.00334011,-0.00021068,0.00024589,0.00164742,-0.0
 0134578,-0.00006660,0.31055998,0.00000920,-0.00007942,-0.00002466,0.00
 322127,-0.00052005,0.00037631,-0.00161894,-0.00027664,-0.00392272,-0.0
 0162411,0.00001406,0.00210798,-0.00032299,0.00036843,0.00019881,0.0163
 0049,0.00211634,0.00615355,-0.00079524,-0.00208916,-0.00168425,-0.0000
 5504,0.00034024,0.00009168,-0.06827360,-0.06263270,0.00808625,0.002953
 27,0.00461008,0.01101366,0.00034070,0.00029713,-0.00006512,-0.02280094
 ,-0.00305653,0.00122033,-0.00895810,0.00582663,-0.00166045,0.08126281,
 0.05633526,0.00001375,0.00002980,-0.00005399,0.00402966,-0.00017121,0.
 00026584,-0.00088966,0.00010212,-0.00260128,-0.00195771,-0.00012428,0.
 00296704,0.00033941,0.00009989,-0.00020950,-0.01107675,-0.00761558,0.0
 1680773,-0.00269496,-0.00183136,-0.00130957,-0.00004254,0.00039547,0.0
 0005609,0.02356798,0.01697444,-0.06035590,-0.00130531,0.00319563,0.007
 27382,-0.00010032,0.00016397,-0.00029260,0.01539349,0.00539879,0.00027
 919,-0.00891144,0.00587620,-0.00200261,-0.01639070,-0.02157920,0.03902
 298,-0.00007113,0.00036218,-0.00001069,-0.00454503,-0.00029531,0.00048
 085,0.00160555,-0.00278278,0.00272710,0.00224321,-0.00015639,-0.005360
 59,0.00008355,0.00011742,-0.00012267,-0.01130631,0.00503877,-0.0052434
 8,0.00533188,-0.00040662,0.00445138,0.00006976,0.00023905,-0.00020153,
 -0.00644431,0.01183880,0.01784051,-0.00810227,-0.00991371,-0.01970188,
 0.00001157,0.00022474,0.00021829,0.00100107,-0.00158497,-0.00169544,-0
 .10353329,-0.14838000,-0.01117365,-0.00048319,0.00068486,0.00068328,0.
 13180946,0.00008910,-0.00034341,-0.00002525,0.00460230,0.00011831,0.00
 013310,-0.00165238,0.00201231,-0.00389446,-0.00283771,0.00058322,0.004
 62068,-0.00008543,-0.00010502,0.00008071,0.00844617,-0.00023611,0.0060
 3994,-0.00271666,0.00009529,-0.00487797,0.00000915,-0.00024829,0.00000
 075,0.00699630,-0.00631332,-0.01129872,0.00014653,0.00250024,0.0146845
 7,0.00008656,-0.00033969,-0.00003203,-0.00082529,0.00111307,0.00130540
 ,-0.16679865,-0.23939176,-0.04259503,0.00047431,-0.00128743,-0.0012920
 7,0.15850310,0.24476605,-0.00000156,-0.00004755,0.00003087,-0.00145011
 ,-0.00016673,-0.00032468,0.00010327,0.00038597,0.00086632,0.00048871,0
 .00106102,-0.00205001,0.00007248,-0.00004498,-0.00006183,-0.00275434,-
 0.00055923,-0.00189389,0.00303257,-0.00159970,0.00025050,0.00003205,0.
 00022576,-0.00023039,-0.00008658,-0.00057965,0.00023094,-0.01598597,-0
 .02390926,-0.00957499,-0.00015922,-0.00031638,0.00007449,0.00036398,-0
 .00003028,0.00010240,-0.01564115,-0.03290973,-0.05115539,0.00020034,-0
 .00010266,0.00011561,0.01946353,0.03975716,0.05913828,0.00010623,-0.00
 045558,0.00000067,0.00393810,0.00017615,-0.00004762,-0.00067597,0.0024
 7753,-0.00327593,-0.00208159,0.00049964,0.00402453,-0.00020146,-0.0002
 8489,0.00005312,0.00799081,-0.00338887,0.00692423,-0.00232500,-0.00002
 003,-0.00319196,-0.00005250,0.00001156,0.00003647,0.00326634,-0.005880
 99,-0.00791205,0.00988559,0.00461515,0.00645582,0.00005770,-0.00039128
 ,0.00030673,-0.00048398,0.00136770,0.00067284,-0.14393586,-0.05408004,
 0.11537314,0.00018466,-0.00032365,-0.00065818,-0.00767053,-0.00443740,
 0.01232202,0.13199748,-0.00011022,0.00033259,-0.00001105,-0.00259180,-
 0.00001110,0.00022296,0.00104014,-0.00202216,0.00157511,0.00139997,-0.
 00056978,-0.00284256,0.00023263,0.00029322,-0.00026929,-0.00760845,0.0
 0426661,-0.00858007,0.00240546,-0.00017326,0.00347099,0.00002574,-0.00
 008041,0.00000575,-0.00346139,0.00585218,0.00811713,0.00424475,0.00199
 972,-0.01723971,-0.00036259,0.00037113,0.00015449,0.00047208,-0.001268
 84,-0.00048104,-0.04232503,-0.06145182,0.05126427,0.00001285,0.0000337
 7,0.00037738,-0.01348913,-0.00292347,0.01883624,0.06011500,0.05535162,
 -0.00002185,-0.00003563,0.00000629,0.00055710,0.00003689,-0.00001470,0
 .00162659,-0.00049886,-0.00054907,-0.00045112,-0.00033378,0.00038870,-
 0.00004755,0.00011296,-0.00051314,0.00059158,-0.00054480,-0.00501974,0
 .00035881,-0.00027908,0.00082913,-0.00001652,-0.00007116,-0.00008814,0
 .00100778,-0.00225282,-0.00364793,0.02148017,0.00727116,-0.01003507,-0
 .00073187,0.00040367,-0.00015865,0.00019910,0.00033466,0.00009912,0.10
 844843,0.05327366,-0.20447274,0.00043820,-0.00020950,0.00003716,-0.002
 35501,-0.00260676,0.00448176,-0.13108383,-0.05460061,0.21865699\\0.000
 00259,0.00000548,0.00000021,-0.00000221,0.00000950,0.00000048,-0.00000
 272,-0.00000932,-0.00000392,0.00000130,-0.00000002,-0.00000456,-0.0000
 0209,-0.00000034,0.00000265,-0.00000235,-0.00001345,0.00000050,-0.0000
 0718,-0.00000240,0.00000071,0.00000159,0.00000042,-0.00000283,0.000003
 27,0.00000867,-0.00000405,0.00001026,0.00000628,0.00000744,-0.00000366
 ,0.00000065,0.00000016,0.00000540,0.00000092,-0.00000005,0.00002080,-0
 .00000641,-0.00000884,-0.00000964,-0.00000579,0.00000289,-0.00001176,-
 0.00000228,0.00000615,-0.00000359,0.00000807,0.00000307\\\@


 I WANT IT ALL - RICH, THIN, AND CHOCOLATE.
 Job cpu time:       0 days  1 hours 13 minutes 22.7 seconds.
 Elapsed time:       0 days  0 hours  6 minutes  7.5 seconds.
 File lengths (MBytes):  RWF=    122 Int=      0 D2E=      0 Chk=     32 Scr=      1
 Normal termination of Gaussian 16 at Sat Jun 11 00:37:17 2022.
