 Entering Gaussian System, Link 0=g16
 Input=ts_zmat_field_N25.gjf
 Output=ts_zmat_field_N25.out
 Initial command:
 /software/gaussian/g16-a03/l1.exe "/local_scratch/11174457/Gau-30638.inp" -scrdir="/local_scratch/11174457/"
 Entering Link 1 = /software/gaussian/g16-a03/l1.exe PID=     30639.
  
 Copyright (c) 1988,1990,1992,1993,1995,1998,2003,2009,2016,
            Gaussian, Inc.  All Rights Reserved.
  
 This is part of the Gaussian(R) 16 program.  It is based on
 the Gaussian(R) 09 system (copyright 2009, Gaussian, Inc.),
 the Gaussian(R) 03 system (copyright 2003, Gaussian, Inc.),
 the Gaussian(R) 98 system (copyright 1998, Gaussian, Inc.),
 the Gaussian(R) 94 system (copyright 1995, Gaussian, Inc.),
 the Gaussian 92(TM) system (copyright 1992, Gaussian, Inc.),
 the Gaussian 90(TM) system (copyright 1990, Gaussian, Inc.),
 the Gaussian 88(TM) system (copyright 1988, Gaussian, Inc.),
 the Gaussian 86(TM) system (copyright 1986, Carnegie Mellon
 University), and the Gaussian 82(TM) system (copyright 1983,
 Carnegie Mellon University). Gaussian is a federally registered
 trademark of Gaussian, Inc.
  
 This software contains proprietary and confidential information,
 including trade secrets, belonging to Gaussian, Inc.
  
 This software is provided under written license and may be
 used, copied, transmitted, or stored only in accord with that
 written license.
  
 The following legend is applicable only to US Government
 contracts under FAR:
  
                    RESTRICTED RIGHTS LEGEND
  
 Use, reproduction and disclosure by the US Government is
 subject to restrictions as set forth in subparagraphs (a)
 and (c) of the Commercial Computer Software - Restricted
 Rights clause in FAR 52.227-19.
  
 Gaussian, Inc.
 340 Quinnipiac St., Bldg. 40, Wallingford CT 06492
  
  
 ---------------------------------------------------------------
 Warning -- This program may not be used in any manner that
 competes with the business of Gaussian, Inc. or will provide
 assistance to any competitor of Gaussian, Inc.  The licensee
 of this program is prohibited from giving any competitor of
 Gaussian, Inc. access to this program.  By using this program,
 the user acknowledges that Gaussian, Inc. is engaged in the
 business of creating and licensing software in the field of
 computational chemistry and represents and warrants to the
 licensee that it is not a competitor of Gaussian, Inc. and that
 it will not use this program in any manner prohibited above.
 ---------------------------------------------------------------
  

 Cite this work as:
 Gaussian 16, Revision A.03,
 M. J. Frisch, G. W. Trucks, H. B. Schlegel, G. E. Scuseria, 
 M. A. Robb, J. R. Cheeseman, G. Scalmani, V. Barone, 
 G. A. Petersson, H. Nakatsuji, X. Li, M. Caricato, A. V. Marenich, 
 J. Bloino, B. G. Janesko, R. Gomperts, B. Mennucci, H. P. Hratchian, 
 J. V. Ortiz, A. F. Izmaylov, J. L. Sonnenberg, D. Williams-Young, 
 F. Ding, F. Lipparini, F. Egidi, J. Goings, B. Peng, A. Petrone, 
 T. Henderson, D. Ranasinghe, V. G. Zakrzewski, J. Gao, N. Rega, 
 G. Zheng, W. Liang, M. Hada, M. Ehara, K. Toyota, R. Fukuda, 
 J. Hasegawa, M. Ishida, T. Nakajima, Y. Honda, O. Kitao, H. Nakai, 
 T. Vreven, K. Throssell, J. A. Montgomery, Jr., J. E. Peralta, 
 F. Ogliaro, M. J. Bearpark, J. J. Heyd, E. N. Brothers, K. N. Kudin, 
 V. N. Staroverov, T. A. Keith, R. Kobayashi, J. Normand, 
 K. Raghavachari, A. P. Rendell, J. C. Burant, S. S. Iyengar, 
 J. Tomasi, M. Cossi, J. M. Millam, M. Klene, C. Adamo, R. Cammi, 
 J. W. Ochterski, R. L. Martin, K. Morokuma, O. Farkas, 
 J. B. Foresman, and D. J. Fox, Gaussian, Inc., Wallingford CT, 2016.
 
 ******************************************
 Gaussian 16:  ES64L-G16RevA.03 25-Dec-2016
                10-Jun-2022 
 ******************************************
 %nprocshared=12
 Will use up to   12 processors via shared memory.
 %chk=checkpoint.chk
 %mem=12GB
 ----------------------------------------------------------------------
 # Opt=(TS, CalcFC, noeigentest, Z-matrix, MaxStep=10) Field=read NoSym
 m B3LYP/Def2TZVP freq=noraman pop=none
 ----------------------------------------------------------------------
 1/5=1,8=10,10=4,11=1,18=40,26=3,38=1/1,3;
 2/12=2,15=1,17=6,18=5,29=3,40=1/2;
 3/5=44,7=101,11=2,14=-6,25=1,30=1,71=2,74=-5,140=1/1,2,3;
 4//1;
 5/5=2,38=5/2;
 8/6=4,10=90,11=11/1;
 11/6=1,8=1,9=11,15=111,16=1,31=1/1,2,10;
 10/6=1,13=1,31=1/2;
 7/10=1,18=20,25=1,30=1/1,2,3,16;
 1/5=1,8=10,10=4,11=1,18=40,26=3/3(2);
 2/15=1,29=3/2;
 99//99;
 2/15=1,29=3/2;
 3/5=44,7=101,11=2,14=-2,25=1,30=1,71=1,74=-5/1,2,3;
 4/5=5,16=3,69=1/1;
 5/5=2,38=5/2;
 7/30=1/1,2,3,16;
 1/5=1,8=10,11=1,18=40,26=3/3(-5);
 2/15=1,29=3/2;
 99/9=1/99;
 -----------------
 ts_zmat_initalOpt
 -----------------
 Symbolic Z-matrix:
 Charge =  0 Multiplicity = 1
 H
 C                    1    R2
 H                    2    R3       1    A3
 C                    2    R4       1    A4       3    D4       0
 H                    4    R5       2    A5       1    D5       0
 C                    4    R6       2    A6       5    D6       0
 H                    6    R7       4    A7       2    D7       0
 C                    6    R8       4    A8       7    D8       0
 H                    8    R9       6    A9       4    D9       0
 H                    8    R10      6    A10      9    D10      0
 C                    8    R11      6    A11      9    D11      0
 H                    11   R12      8    A12      6    D12      0
 H                    11   R13      8    A13      12   D13      0
       Variables:
  R2                    1.08422                  
  R3                    1.07697                  
  R4                    1.36997                  
  R5                    1.09297                  
  R6                    1.38898                  
  R7                    1.08703                  
  R8                    1.50547                  
  R9                    1.09595                  
  R10                   1.09295                  
  R11                   1.45933                  
  R12                   1.08047                  
  R13                   1.07871                  
  A3                  117.07369                  
  A4                  121.23389                  
  A5                  117.32828                  
  A6                  127.86756                  
  A7                  118.91714                  
  A8                  123.46834                  
  A9                  107.97209                  
  A10                 112.24803                  
  A11                 103.43863                  
  A12                 119.03922                  
  A13                 122.85703                  
  D4                  169.91232                  
  D5                  -21.4851                   
  D6                  177.62252                  
  D7                  151.07365                  
  D8                  178.25373                  
  D9                  168.41914                  
  D10                 118.57272                  
  D11                -118.46513                  
  D12                  66.14458                  
  D13                -178.67074                  
 

 GradGradGradGradGradGradGradGradGradGradGradGradGradGradGradGradGradGrad
 Berny optimization.
 Initialization pass.
                       ----------------------------
                       !    Initial Parameters    !
                       ! (Angstroms and Degrees)  !
 ----------------------                            ----------------------
 !      Name          Value   Derivative information (Atomic Units)     !
 ------------------------------------------------------------------------
 !       R2          1.0842   calculate D2E/DX2 analytically            !
 !       R3          1.077    calculate D2E/DX2 analytically            !
 !       R4          1.37     calculate D2E/DX2 analytically            !
 !       R5          1.093    calculate D2E/DX2 analytically            !
 !       R6          1.389    calculate D2E/DX2 analytically            !
 !       R7          1.087    calculate D2E/DX2 analytically            !
 !       R8          1.5055   calculate D2E/DX2 analytically            !
 !       R9          1.096    calculate D2E/DX2 analytically            !
 !       R10         1.0929   calculate D2E/DX2 analytically            !
 !       R11         1.4593   calculate D2E/DX2 analytically            !
 !       R12         1.0805   calculate D2E/DX2 analytically            !
 !       R13         1.0787   calculate D2E/DX2 analytically            !
 !       A3        117.0737   calculate D2E/DX2 analytically            !
 !       A4        121.2339   calculate D2E/DX2 analytically            !
 !       A5        117.3283   calculate D2E/DX2 analytically            !
 !       A6        127.8676   calculate D2E/DX2 analytically            !
 !       A7        118.9171   calculate D2E/DX2 analytically            !
 !       A8        123.4683   calculate D2E/DX2 analytically            !
 !       A9        107.9721   calculate D2E/DX2 analytically            !
 !       A10       112.248    calculate D2E/DX2 analytically            !
 !       A11       103.4386   calculate D2E/DX2 analytically            !
 !       A12       119.0392   calculate D2E/DX2 analytically            !
 !       A13       122.857    calculate D2E/DX2 analytically            !
 !       D4        169.9123   calculate D2E/DX2 analytically            !
 !       D5        -21.4851   calculate D2E/DX2 analytically            !
 !       D6        177.6225   calculate D2E/DX2 analytically            !
 !       D7        151.0736   calculate D2E/DX2 analytically            !
 !       D8        178.2537   calculate D2E/DX2 analytically            !
 !       D9        168.4191   calculate D2E/DX2 analytically            !
 !       D10       118.5727   calculate D2E/DX2 analytically            !
 !       D11      -118.4651   calculate D2E/DX2 analytically            !
 !       D12        66.1446   calculate D2E/DX2 analytically            !
 !       D13      -178.6707   calculate D2E/DX2 analytically            !
 ------------------------------------------------------------------------
 Trust Radius=1.00D-01 FncErr=1.00D-07 GrdErr=1.00D-06 EigMax=2.50D+02 EigMin=1.00D-04
 Number of steps in this run=     43 maximum allowed number of steps=    100.
 Search for a saddle point of order  1.
 GradGradGradGradGradGradGradGradGradGradGradGradGradGradGradGradGradGrad

 ---------------------------------------------------------------------------------------------------
                            Z-MATRIX (ANGSTROMS AND DEGREES)
   CD    Cent   Atom    N1       Length/X        N2       Alpha/Y        N3        Beta/Z          J
 ---------------------------------------------------------------------------------------------------
      1      1  H 
      2      2  C        1   1.084224(     1)
      3      3  H        2   1.076968(     2)      1  117.074(    13)
      4      4  C        2   1.369970(     3)      1  121.234(    14)      3  169.912(    24)      0
      5      5  H        4   1.092971(     4)      2  117.328(    15)      1  -21.485(    25)      0
      6      6  C        4   1.388977(     5)      2  127.868(    16)      5  177.623(    26)      0
      7      7  H        6   1.087030(     6)      4  118.917(    17)      2  151.074(    27)      0
      8      8  C        6   1.505466(     7)      4  123.468(    18)      7  178.254(    28)      0
      9      9  H        8   1.095952(     8)      6  107.972(    19)      4  168.419(    29)      0
     10     10  H        8   1.092947(     9)      6  112.248(    20)      9  118.573(    30)      0
     11     11  C        8   1.459328(    10)      6  103.439(    21)      9 -118.465(    31)      0
     12     12  H       11   1.080469(    11)      8  119.039(    22)      6   66.145(    32)      0
     13     13  H       11   1.078713(    12)      8  122.857(    23)     12 -178.671(    33)      0
 ---------------------------------------------------------------------------------------------------
                         Z-Matrix orientation:                         
 ---------------------------------------------------------------------
 Center     Atomic      Atomic             Coordinates (Angstroms)
 Number     Number       Type             X           Y           Z
 ---------------------------------------------------------------------
      1          1           0        0.000000    0.000000    0.000000
      2          6           0        0.000000    0.000000    1.084224
      3          1           0        0.958956    0.000000    1.574391
      4          6           0       -1.153294    0.205177    1.794598
      5          1           0       -1.974672    0.712521    1.282225
      6          6           0       -1.436817   -0.194932    3.094130
      7          1           0       -2.131237    0.395653    3.686265
      8          6           0       -0.860803   -1.434235    3.725608
      9          1           0       -1.076725   -1.398199    4.799474
     10          1           0       -1.308436   -2.348126    3.326907
     11          6           0        0.569242   -1.317260    3.459289
     12          1           0        1.125930   -0.517419    3.925945
     13          1           0        1.097678   -1.984637    2.796730
 ---------------------------------------------------------------------
                    Distance matrix (angstroms):
                    1          2          3          4          5
     1  H    0.000000
     2  C    1.084224   0.000000
     3  H    1.843449   1.076968   0.000000
     4  C    2.143074   1.369970   2.133586   0.000000
     5  H    2.459902   2.108606   3.033022   1.092971   0.000000
     6  C    3.417028   2.478339   2.843824   1.388977   2.096607
     7  H    4.276361   3.386640   3.763754   2.138003   2.429881
     8  C    4.083891   3.126487   3.161691   2.549907   3.437933
     9  H    5.113634   4.113075   4.062034   3.406752   4.199106
    10  H    4.277150   3.500761   3.704872   2.981844   3.740609
    11  C    3.745116   2.774914   2.332358   2.838335   3.915497
    12  H    4.116854   3.100133   2.413589   3.203069   4.256259
    13  H    3.600747   2.841894   2.334982   3.296427   4.359785
                    6          7          8          9         10
     6  C    0.000000
     7  H    1.087030   0.000000
     8  C    1.505466   2.228013   0.000000
     9  H    2.117951   2.359902   1.095952   0.000000
    10  H    2.169542   2.886947   1.092947   1.767627   0.000000
    11  C    2.327495   3.205960   1.459328   2.124113   2.146133
    12  H    2.713593   3.391207   2.197224   2.527947   3.104267
    13  H    3.116914   4.108886   2.236381   3.013789   2.490501
                   11         12         13
    11  C    0.000000
    12  H    1.080469   0.000000
    13  H    1.078713   1.851662   0.000000
 Symmetry turned off by external request.
 Stoichiometry    C5H8
 Framework group  C1[X(C5H8)]
 Deg. of freedom    33
 Full point group                 C1      NOp   1
 Rotational constants (GHZ):           8.4972827           4.4922933           3.1937431
 Standard basis: def2TZVP (5D, 7F)
 The following finite field(s) will be applied:
 An electric field of              0.0002  0.0003 -0.0025
   203 basis functions,   319 primitive gaussians,   228 cartesian basis functions
    19 alpha electrons       19 beta electrons
       nuclear repulsion energy       162.0285214569 Hartrees.
 NAtoms=   13 NActive=   13 NUniq=   13 SFac= 1.00D+00 NAtFMM=   60 NAOKFM=F Big=F
 Integral buffers will be    131072 words long.
 Raffenetti 2 integral format.
 Two-electron integral symmetry is turned off.
 One-electron integrals computed using PRISM.
   1 Symmetry operations used in ECPInt.
 ECPInt:  NShTT=    3828 NPrTT=   11160 LenC2=    3812 LenP2D=    9471.
 LDataN:  DoStor=T MaxTD1= 6 Len=  172
 NBasis=   203 RedAO= T EigKep=  1.52D-04  NBF=   203
 NBsUse=   203 1.00D-06 EigRej= -1.00D+00 NBFU=   203
 The nuclear repulsion energy is now       161.5388386642 hartrees.
 ExpMin= 9.52D-02 ExpMax= 1.36D+04 ExpMxC= 4.63D+02 IAcc=3 IRadAn=         5 AccDes= 0.00D+00
 Harris functional with IExCor=  402 and IRadAn=       5 diagonalized for initial guess.
 HarFok:  IExCor=  402 AccDes= 0.00D+00 IRadAn=         5 IDoV= 1 UseB2=F ITyADJ=14
 ICtDFT=  3500011 ScaDFX=  1.000000  1.000000  1.000000  1.000000
 FoFCou: FMM=F IPFlag=           0 FMFlag=      100000 FMFlg1=           0
         NFxFlg=           0 DoJE=T BraDBF=F KetDBF=T FulRan=T
         wScrn=  0.000000 ICntrl=       500 IOpCl=  0 I1Cent=   200000004 NGrid=           0
         NMat0=    1 NMatS0=      1 NMatT0=    0 NMatD0=    1 NMtDS0=    0 NMtDT0=    0
 Symmetry not used in FoFCou.
 Requested convergence on RMS density matrix=1.00D-08 within 128 cycles.
 Requested convergence on MAX density matrix=1.00D-06.
 Requested convergence on             energy=1.00D-06.
 No special actions if energy rises.
 Integral accuracy reduced to 1.0D-05 until final iterations.
 Initial convergence to 1.0D-05 achieved.  Increase integral accuracy.
 SCF Done:  E(RB3LYP) =  -195.276978792     A.U. after   16 cycles
            NFock= 16  Conv=0.49D-08     -V/T= 2.0056
 DoSCS=F DFT=T ScalE2(SS,OS)=  1.000000  1.000000
 Range of M.O.s used for correlation:     1   203
 NBasis=   203 NAE=    19 NBE=    19 NFC=     0 NFV=     0
 NROrb=    203 NOA=    19 NOB=    19 NVA=   184 NVB=   184

 **** Warning!!: The largest alpha MO coefficient is  0.19170213D+02

   1 Symmetry operations used in ECPInt.
 ECPInt:  NShTT=    3828 NPrTT=   11160 LenC2=    3812 LenP2D=    9471.
 LDataN:  DoStor=T MaxTD1= 7 Len=  274
 Symmetrizing basis deriv contribution to polar:
 IMax=3 JMax=2 DiffMx= 0.00D+00
 G2DrvN: will do    14 centers at a time, making    1 passes.
 Calling FoFCou, ICntrl=  3107 FMM=F I1Cent=   0 AccDes= 0.00D+00.
 End of G2Drv F.D. properties file   721 does not exist.
 End of G2Drv F.D. properties file   722 does not exist.
 End of G2Drv F.D. properties file   788 does not exist.
          IDoAtm=1111111111111
          Differentiating once with respect to nuclear coordinates.
 Keep R1 ints in memory in canonical form, NReq=227048987.
          There are    42 degrees of freedom in the 1st order CPHF.  IDoFFX=6 NUNeed=     0.
     36 vectors produced by pass  0 Test12= 8.32D-15 2.38D-09 XBig12= 8.80D-02 1.14D-01.
 AX will form    36 AO Fock derivatives at one time.
     36 vectors produced by pass  1 Test12= 8.32D-15 2.38D-09 XBig12= 1.02D-02 3.68D-02.
     36 vectors produced by pass  2 Test12= 8.32D-15 2.38D-09 XBig12= 1.33D-04 2.26D-03.
     36 vectors produced by pass  3 Test12= 8.32D-15 2.38D-09 XBig12= 5.48D-07 1.20D-04.
     36 vectors produced by pass  4 Test12= 8.32D-15 2.38D-09 XBig12= 1.03D-09 5.52D-06.
     31 vectors produced by pass  5 Test12= 8.32D-15 2.38D-09 XBig12= 1.22D-12 1.36D-07.
      2 vectors produced by pass  6 Test12= 8.32D-15 2.38D-09 XBig12= 1.61D-15 5.40D-09.
 InvSVY:  IOpt=1 It=  1 EMax= 2.89D-15
 Solved reduced A of dimension   213 with    36 vectors.
 End of Minotr F.D. properties file   721 does not exist.
 End of Minotr F.D. properties file   722 does not exist.
 End of Minotr F.D. properties file   788 does not exist.
   1 Symmetry operations used in ECPInt.
 ECPInt:  NShTT=    3828 NPrTT=   11160 LenC2=    3812 LenP2D=    9471.
 LDataN:  DoStor=T MaxTD1= 8 Len=  415
 Calling FoFJK, ICntrl=    100147 FMM=F ISym2X=0 I1Cent= 0 IOpClX= 0 NMat=1 NMatS=1 NMatT=0.
 -------------------------------------------------------------------
 Center     Atomic                   Forces (Hartrees/Bohr)
 Number     Number              X              Y              Z
 -------------------------------------------------------------------
      1        1          -0.000026691    0.000088685   -0.000330689
      2        6           0.000845934   -0.000170441   -0.000104259
      3        1           0.000043285   -0.000022711   -0.000152736
      4        6          -0.000432927   -0.000109126    0.000510300
      5        1          -0.000226677    0.000078325    0.000080515
      6        6          -0.000143696    0.000560022   -0.000233711
      7        1           0.000183611   -0.000243317   -0.000010686
      8        6           0.000575348   -0.000521584    0.000180087
      9        1           0.000192698   -0.000015602   -0.000246301
     10        1           0.000010549    0.000060556    0.000163643
     11        6          -0.001053287    0.000604409   -0.000129796
     12        1          -0.000003241   -0.000093913    0.000130468
     13        1           0.000035094   -0.000215303    0.000143165
 -------------------------------------------------------------------
 Cartesian Forces:  Max     0.001053287 RMS     0.000330285
 -----------------------------------------------------------------------------------------------
                       Internal Coordinate Forces (Hartree/Bohr or radian)
  Cent   Atom   N1       Length/X         N2         Alpha/Y        N3         Beta/Z          J
 -----------------------------------------------------------------------------------------------
      1  H 
      2  C        1   0.000331(     1)
      3  H        2  -0.000031(     2)      1  -0.000317(    13)
      4  C        2   0.001046(     3)      1  -0.000240(    14)      3   0.000044(    24)     0
      5  H        4   0.000169(     4)      2   0.000388(    15)      1   0.000324(    25)     0
      6  C        4  -0.000000(     5)      2   0.000840(    16)      5   0.000352(    26)     0
      7  H        6  -0.000255(     6)      4   0.000343(    17)      2   0.000165(    27)     0
      8  C        6   0.000158(     7)      4   0.000629(    18)      7   0.000166(    28)     0
      9  H        8  -0.000280(     8)      6   0.000152(    19)      4   0.000040(    29)     0
     10  H        8  -0.000115(     9)      6   0.000148(    20)      9  -0.000212(    30)     0
     11  C        8  -0.001004(    10)      6  -0.000555(    21)      9   0.000488(    31)     0
     12  H       11  -0.000015(    11)      8  -0.000064(    22)      6  -0.000145(    32)     0
     13  H       11   0.000062(    12)      8  -0.000104(    23)     12  -0.000425(    33)     0
 -----------------------------------------------------------------------------------------------
 Internal  Forces:  Max     0.001046490 RMS     0.000392863

 GradGradGradGradGradGradGradGradGradGradGradGradGradGradGradGradGradGrad
 Berny optimization.
 Search for a saddle point.
 Step number   1 out of a maximum of   43
 All quantities printed in internal units (Hartrees-Bohrs-Radians)
 Swapping is turned off.
 Second derivative matrix not updated -- analytic derivatives used.
 ITU=  0
     Eigenvalues ---   -0.20160   0.01496   0.01891   0.02243   0.03275
     Eigenvalues ---    0.04379   0.08565   0.09554   0.10741   0.11526
     Eigenvalues ---    0.12183   0.13575   0.15087   0.19813   0.25519
     Eigenvalues ---    0.28366   0.28710   0.30683   0.31030   0.32487
     Eigenvalues ---    0.33061   0.34114   0.34452   0.36547   0.36676
     Eigenvalues ---    0.37194   0.37461   0.38688   0.40367   0.44868
     Eigenvalues ---    0.46070   0.55973   0.98400
 Eigenvectors required to have negative eigenvalues:
                          D9        A11       D5        D11       A8
   1                    0.55747  -0.33076   0.31851   0.28262   0.28222
                          A6        D4        D13       D12       R6
   1                    0.24094   0.23049   0.20405   0.19363   0.16378
 RFO step:  Lambda0=1.952111763D-06 Lambda=-2.30700890D-05.
 Linear search not attempted -- option 19 set.
 Variable       Old X    -DE/DX   Delta X   Delta X   Delta X     New X
                                 (Linear)    (Quad)   (Total)
    R2        2.04889   0.00033   0.00000   0.00096   0.00096   2.04985
    R3        2.03517  -0.00003   0.00000  -0.00009  -0.00009   2.03508
    R4        2.58887   0.00105   0.00000   0.00197   0.00197   2.59084
    R5        2.06542   0.00017   0.00000   0.00055   0.00055   2.06597
    R6        2.62479  -0.00000   0.00000  -0.00070  -0.00070   2.62409
    R7        2.05419  -0.00026   0.00000  -0.00069  -0.00069   2.05350
    R8        2.84492   0.00016   0.00000   0.00196   0.00196   2.84688
    R9        2.07105  -0.00028   0.00000  -0.00072  -0.00072   2.07033
   R10        2.06537  -0.00011   0.00000  -0.00047  -0.00047   2.06490
   R11        2.75773  -0.00100   0.00000  -0.00363  -0.00363   2.75410
   R12        2.04179  -0.00001   0.00000  -0.00017  -0.00017   2.04162
   R13        2.03847   0.00006   0.00000   0.00014   0.00014   2.03862
    A3        2.04332  -0.00032   0.00000  -0.00130  -0.00130   2.04203
    A4        2.11593  -0.00024   0.00000  -0.00062  -0.00062   2.11531
    A5        2.04776   0.00039   0.00000   0.00076   0.00076   2.04852
    A6        2.23171   0.00084   0.00000   0.00118   0.00118   2.23289
    A7        2.07550   0.00034   0.00000   0.00083   0.00083   2.07633
    A8        2.15493   0.00063   0.00000   0.00136   0.00136   2.15629
    A9        1.88447   0.00015   0.00000  -0.00135  -0.00135   1.88312
   A10        1.95910   0.00015   0.00000   0.00204   0.00204   1.96114
   A11        1.80534  -0.00055   0.00000  -0.00328  -0.00328   1.80207
   A12        2.07763  -0.00006   0.00000  -0.00010  -0.00010   2.07753
   A13        2.14426  -0.00010   0.00000   0.00043   0.00043   2.14469
    D4        2.96553   0.00004   0.00000  -0.00483  -0.00483   2.96070
    D5       -0.37499   0.00032   0.00000   0.00205   0.00205  -0.37293
    D6        3.10010   0.00035   0.00000   0.00162   0.00162   3.10172
    D7        2.63673   0.00016   0.00000  -0.00050  -0.00050   2.63623
    D8        3.11111   0.00017   0.00000   0.00258   0.00258   3.11369
    D9        2.93947   0.00004   0.00000  -0.00758  -0.00758   2.93188
   D10        2.06948  -0.00021   0.00000   0.00065   0.00065   2.07013
   D11       -2.06761   0.00049   0.00000   0.00406   0.00406  -2.06354
   D12        1.15444  -0.00014   0.00000   0.00916   0.00916   1.16360
   D13       -3.11839  -0.00042   0.00000  -0.01835  -0.01835  -3.13674
         Item               Value     Threshold  Converged?
 Maximum Force            0.001046     0.000450     NO 
 RMS     Force            0.000393     0.000300     NO 
 Maximum Displacement     0.018352     0.001800     NO 
 RMS     Displacement     0.004191     0.001200     NO 
 Predicted change in Energy=-1.056556D-05
 GradGradGradGradGradGradGradGradGradGradGradGradGradGradGradGradGradGrad

 ---------------------------------------------------------------------------------------------------
                            Z-MATRIX (ANGSTROMS AND DEGREES)
   CD    Cent   Atom    N1       Length/X        N2       Alpha/Y        N3        Beta/Z          J
 ---------------------------------------------------------------------------------------------------
      1      1  H 
      2      2  C        1   1.084733(     1)
      3      3  H        2   1.076921(     2)      1  116.999(    13)
      4      4  C        2   1.371012(     3)      1  121.198(    14)      3  169.635(    24)      0
      5      5  H        4   1.093263(     4)      2  117.372(    15)      1  -21.367(    25)      0
      6      6  C        4   1.388607(     5)      2  127.935(    16)      5  177.715(    26)      0
      7      7  H        6   1.086663(     6)      4  118.965(    17)      2  151.045(    27)      0
      8      8  C        6   1.506502(     7)      4  123.546(    18)      7  178.401(    28)      0
      9      9  H        8   1.095571(     8)      6  107.895(    19)      4  167.985(    29)      0
     10     10  H        8   1.092698(     9)      6  112.365(    20)      9  118.610(    30)      0
     11     11  C        8   1.457407(    10)      6  103.251(    21)      9 -118.232(    31)      0
     12     12  H       11   1.080379(    11)      8  119.034(    22)      6   66.669(    32)      0
     13     13  H       11   1.078789(    12)      8  122.882(    23)     12 -179.722(    33)      0
 ---------------------------------------------------------------------------------------------------
                         Z-Matrix orientation:                         
 ---------------------------------------------------------------------
 Center     Atomic      Atomic             Coordinates (Angstroms)
 Number     Number       Type             X           Y           Z
 ---------------------------------------------------------------------
      1          1           0        0.000000    0.000000    0.000000
      2          6           0        0.000000    0.000000    1.084733
      3          1           0        0.959548    0.000000    1.573636
      4          6           0       -1.153601    0.210990    1.794918
      5          1           0       -1.973591    0.720563    1.281912
      6          6           0       -1.439767   -0.183335    3.095244
      7          1           0       -2.132142    0.411211    3.685133
      8          6           0       -0.867161   -1.421295    3.734870
      9          1           0       -1.079354   -1.374290    4.808668
     10          1           0       -1.319067   -2.337104    3.346201
     11          6           0        0.560489   -1.306830    3.465150
     12          1           0        1.120134   -0.509606    3.932535
     13          1           0        1.089221   -1.983319    2.812012
 ---------------------------------------------------------------------
                    Distance matrix (angstroms):
                    1          2          3          4          5
     1  H    0.000000
     2  C    1.084733   0.000000
     3  H    1.843112   1.076921   0.000000
     4  C    2.144072   1.371012   2.135153   0.000000
     5  H    2.461213   2.110249   3.034405   1.093263   0.000000
     6  C    3.418636   2.479656   2.847036   1.388607   2.095273
     7  H    4.277304   3.387802   3.766439   2.137883   2.428232
     8  C    4.089169   3.129740   3.166683   2.551434   3.439295
     9  H    5.116343   4.113559   4.063401   3.406070   4.198342
    10  H    4.289412   3.509448   3.714314   2.987748   3.746868
    11  C    3.745560   2.772785   2.333427   2.834000   3.911319
    12  H    4.120586   3.102317   2.418655   3.202895   4.255614
    13  H    3.609345   2.846656   2.341783   3.298443   4.362683
                    6          7          8          9         10
     6  C    0.000000
     7  H    1.086663   0.000000
     8  C    1.506502   2.227269   0.000000
     9  H    2.117568   2.357691   1.095571   0.000000
    10  H    2.171698   2.886035   1.092698   1.767281   0.000000
    11  C    2.323811   3.201612   1.457407   2.121008   2.146705
    12  H    2.713044   3.389161   2.195357   2.520523   3.103746
    13  H    3.117042   4.107712   2.234943   3.010028   2.492062
                   11         12         13
    11  C    0.000000
    12  H    1.080379   0.000000
    13  H    1.078789   1.851583   0.000000
 Symmetry turned off by external request.
 Stoichiometry    C5H8
 Framework group  C1[X(C5H8)]
 Deg. of freedom    33
 Full point group                 C1      NOp   1
 Rotational constants (GHZ):           8.5079614           4.4899980           3.1933734
 Standard basis: def2TZVP (5D, 7F)
 The following finite field(s) will be applied:
 An electric field of              0.0002  0.0003 -0.0025
   203 basis functions,   319 primitive gaussians,   228 cartesian basis functions
    19 alpha electrons       19 beta electrons
       nuclear repulsion energy       162.0334717818 Hartrees.
 NAtoms=   13 NActive=   13 NUniq=   13 SFac= 1.00D+00 NAtFMM=   60 NAOKFM=F Big=F
 Integral buffers will be    131072 words long.
 Raffenetti 2 integral format.
 Two-electron integral symmetry is turned off.
 One-electron integrals computed using PRISM.
   1 Symmetry operations used in ECPInt.
 ECPInt:  NShTT=    3828 NPrTT=   11160 LenC2=    3812 LenP2D=    9471.
 LDataN:  DoStor=T MaxTD1= 6 Len=  172
 NBasis=   203 RedAO= T EigKep=  1.52D-04  NBF=   203
 NBsUse=   203 1.00D-06 EigRej= -1.00D+00 NBFU=   203
 The nuclear repulsion energy is now       161.5431833999 hartrees.
 Initial guess from the checkpoint file:  "checkpoint.chk"
 B after Tr=    -0.001225   -0.010369    0.003134
         Rot=    0.999996    0.002300    0.000256    0.001429 Ang=   0.31 deg.
 Requested convergence on RMS density matrix=1.00D-08 within 128 cycles.
 Requested convergence on MAX density matrix=1.00D-06.
 Requested convergence on             energy=1.00D-06.
 No special actions if energy rises.
 SCF Done:  E(RB3LYP) =  -195.276989332     A.U. after    9 cycles
            NFock=  9  Conv=0.69D-08     -V/T= 2.0056
   1 Symmetry operations used in ECPInt.
 ECPInt:  NShTT=    3828 NPrTT=   11160 LenC2=    3812 LenP2D=    9471.
 LDataN:  DoStor=T MaxTD1= 7 Len=  274
 Calling FoFJK, ICntrl=      2127 FMM=F ISym2X=0 I1Cent= 0 IOpClX= 0 NMat=1 NMatS=1 NMatT=0.
 -------------------------------------------------------------------
 Center     Atomic                   Forces (Hartrees/Bohr)
 Number     Number              X              Y              Z
 -------------------------------------------------------------------
      1        1          -0.000092002   -0.000090472   -0.000000511
      2        6           0.000093450    0.000089741    0.000000500
      3        1           0.000000476    0.000000210   -0.000000651
      4        6          -0.000002063    0.000001239   -0.000000859
      5        1          -0.000000555   -0.000000336   -0.000000304
      6        6          -0.000000340   -0.000000116    0.000000723
      7        1           0.000000020    0.000000511    0.000000093
      8        6          -0.000008577    0.000000617    0.000003748
      9        1          -0.000001394   -0.000000408   -0.000000267
     10        1           0.000000298   -0.000000047   -0.000000343
     11        6           0.000015332   -0.000001029   -0.000002057
     12        1          -0.000002546    0.000004280    0.000003254
     13        1          -0.000002098   -0.000004192   -0.000003327
 -------------------------------------------------------------------
 Cartesian Forces:  Max     0.000093450 RMS     0.000029458
 -----------------------------------------------------------------------------------------------
                       Internal Coordinate Forces (Hartree/Bohr or radian)
  Cent   Atom   N1       Length/X         N2         Alpha/Y        N3         Beta/Z          J
 -----------------------------------------------------------------------------------------------
      1  H 
      2  C        1   0.000001(     1)
      3  H        2   0.000000(     2)      1  -0.000002(    13)
      4  C        2   0.000002(     3)      1  -0.000002(    14)      3  -0.000000(    24)     0
      5  H        4   0.000000(     4)      2   0.000000(    15)      1   0.000002(    25)     0
      6  C        4   0.000002(     5)      2   0.000001(    16)      5   0.000001(    26)     0
      7  H        6   0.000000(     6)      4  -0.000001(    17)      2  -0.000001(    27)     0
      8  C        6   0.000001(     7)      4   0.000002(    18)      7   0.000000(    28)     0
      9  H        8  -0.000000(     8)      6  -0.000001(    19)      4   0.000002(    29)     0
     10  H        8   0.000000(     9)      6  -0.000000(    20)      9   0.000001(    30)     0
     11  C        8   0.000011(    10)      6   0.000003(    21)      9  -0.000002(    31)     0
     12  H       11   0.000003(    11)      8  -0.000010(    22)      6  -0.000000(    32)     0
     13  H       11   0.000004(    12)      8  -0.000009(    23)     12   0.000001(    33)     0
 -----------------------------------------------------------------------------------------------
 Internal  Forces:  Max     0.000010790 RMS     0.000003338

 GradGradGradGradGradGradGradGradGradGradGradGradGradGradGradGradGradGrad
 Berny optimization.
 Search for a saddle point.
 Step number   2 out of a maximum of   43
 All quantities printed in internal units (Hartrees-Bohrs-Radians)
 Swapping is turned off.
 Update second derivatives using D2CorN and points    1    2
 ITU=  0  0
     Eigenvalues ---   -0.20160   0.01503   0.01890   0.02244   0.03276
     Eigenvalues ---    0.04379   0.08566   0.09554   0.10741   0.11527
     Eigenvalues ---    0.12183   0.13575   0.15087   0.19813   0.25520
     Eigenvalues ---    0.28366   0.28712   0.30683   0.31030   0.32487
     Eigenvalues ---    0.33061   0.34115   0.34452   0.36547   0.36676
     Eigenvalues ---    0.37194   0.37461   0.38688   0.40367   0.44868
     Eigenvalues ---    0.46070   0.55972   0.98400
 Eigenvectors required to have negative eigenvalues:
                          D9        A11       D5        D11       A8
   1                    0.55744  -0.33079   0.31850   0.28266   0.28222
                          A6        D4        D13       D12       R6
   1                    0.24095   0.23048   0.20398   0.19368   0.16377
 RFO step:  Lambda0=3.331404597D-12 Lambda= 0.00000000D+00.
 Linear search not attempted -- option 19 set.
 Variable       Old X    -DE/DX   Delta X   Delta X   Delta X     New X
                                 (Linear)    (Quad)   (Total)
    R2        2.04985   0.00000   0.00000   0.00000   0.00000   2.04985
    R3        2.03508   0.00000   0.00000  -0.00000  -0.00000   2.03508
    R4        2.59084   0.00000   0.00000   0.00001   0.00001   2.59084
    R5        2.06597   0.00000   0.00000   0.00000   0.00000   2.06597
    R6        2.62409   0.00000   0.00000   0.00000   0.00000   2.62409
    R7        2.05350   0.00000   0.00000   0.00000   0.00000   2.05350
    R8        2.84688   0.00000   0.00000  -0.00000  -0.00000   2.84687
    R9        2.07033  -0.00000   0.00000  -0.00000  -0.00000   2.07033
   R10        2.06490   0.00000   0.00000   0.00000   0.00000   2.06490
   R11        2.75410   0.00001   0.00000   0.00004   0.00004   2.75414
   R12        2.04162   0.00000   0.00000   0.00001   0.00001   2.04163
   R13        2.03862   0.00000   0.00000   0.00001   0.00001   2.03862
    A3        2.04203  -0.00000   0.00000  -0.00001  -0.00001   2.04202
    A4        2.11531  -0.00000   0.00000  -0.00001  -0.00001   2.11530
    A5        2.04852   0.00000   0.00000   0.00000   0.00000   2.04852
    A6        2.23289   0.00000   0.00000  -0.00000  -0.00000   2.23289
    A7        2.07633  -0.00000   0.00000  -0.00000  -0.00000   2.07632
    A8        2.15629   0.00000   0.00000   0.00000   0.00000   2.15629
    A9        1.88312  -0.00000   0.00000   0.00001   0.00001   1.88312
   A10        1.96114  -0.00000   0.00000  -0.00001  -0.00001   1.96113
   A11        1.80207   0.00000   0.00000   0.00002   0.00002   1.80209
   A12        2.07753  -0.00001   0.00000  -0.00004  -0.00004   2.07750
   A13        2.14469  -0.00001   0.00000  -0.00003  -0.00003   2.14466
    D4        2.96070  -0.00000   0.00000  -0.00004  -0.00004   2.96065
    D5       -0.37293   0.00000   0.00000   0.00004   0.00004  -0.37289
    D6        3.10172   0.00000   0.00000  -0.00001  -0.00001   3.10171
    D7        2.63623  -0.00000   0.00000   0.00001   0.00001   2.63624
    D8        3.11369   0.00000   0.00000  -0.00000  -0.00000   3.11369
    D9        2.93188   0.00000   0.00000   0.00002   0.00002   2.93190
   D10        2.07013   0.00000   0.00000  -0.00001  -0.00001   2.07012
   D11       -2.06354  -0.00000   0.00000  -0.00003  -0.00003  -2.06357
   D12        1.16360  -0.00000   0.00000  -0.00005  -0.00005   1.16355
   D13       -3.13674   0.00000   0.00000   0.00007   0.00007  -3.13667
         Item               Value     Threshold  Converged?
 Maximum Force            0.000011     0.000450     YES
 RMS     Force            0.000003     0.000300     YES
 Maximum Displacement     0.000073     0.001800     YES
 RMS     Displacement     0.000024     0.001200     YES
 Predicted change in Energy=-7.341692D-10
 Optimization completed.
    -- Stationary point found.
                       ----------------------------
                       !   Optimized Parameters   !
                       ! (Angstroms and Degrees)  !
 ----------------------                            ----------------------
 !      Name          Value   Derivative information (Atomic Units)     !
 ------------------------------------------------------------------------
 !       R2          1.0847   -DE/DX =    0.0                           !
 !       R3          1.0769   -DE/DX =    0.0                           !
 !       R4          1.371    -DE/DX =    0.0                           !
 !       R5          1.0933   -DE/DX =    0.0                           !
 !       R6          1.3886   -DE/DX =    0.0                           !
 !       R7          1.0867   -DE/DX =    0.0                           !
 !       R8          1.5065   -DE/DX =    0.0                           !
 !       R9          1.0956   -DE/DX =    0.0                           !
 !       R10         1.0927   -DE/DX =    0.0                           !
 !       R11         1.4574   -DE/DX =    0.0                           !
 !       R12         1.0804   -DE/DX =    0.0                           !
 !       R13         1.0788   -DE/DX =    0.0                           !
 !       A3        116.9995   -DE/DX =    0.0                           !
 !       A4        121.1982   -DE/DX =    0.0                           !
 !       A5        117.3717   -DE/DX =    0.0                           !
 !       A6        127.9351   -DE/DX =    0.0                           !
 !       A7        118.9647   -DE/DX =    0.0                           !
 !       A8        123.5461   -DE/DX =    0.0                           !
 !       A9        107.8945   -DE/DX =    0.0                           !
 !       A10       112.3649   -DE/DX =    0.0                           !
 !       A11       103.2508   -DE/DX =    0.0                           !
 !       A12       119.0338   -DE/DX =    0.0                           !
 !       A13       122.8817   -DE/DX =    0.0                           !
 !       D4        169.6353   -DE/DX =    0.0                           !
 !       D5        -21.3674   -DE/DX =    0.0                           !
 !       D6        177.7154   -DE/DX =    0.0                           !
 !       D7        151.0449   -DE/DX =    0.0                           !
 !       D8        178.4014   -DE/DX =    0.0                           !
 !       D9        167.9846   -DE/DX =    0.0                           !
 !       D10       118.6099   -DE/DX =    0.0                           !
 !       D11      -118.2323   -DE/DX =    0.0                           !
 !       D12        66.6692   -DE/DX =    0.0                           !
 !       D13      -179.7222   -DE/DX =    0.0                           !
 ------------------------------------------------------------------------
 GradGradGradGradGradGradGradGradGradGradGradGradGradGradGradGradGradGrad

 ---------------------------------------------------------------------------------------------------
                            Z-MATRIX (ANGSTROMS AND DEGREES)
   CD    Cent   Atom    N1       Length/X        N2       Alpha/Y        N3        Beta/Z          J
 ---------------------------------------------------------------------------------------------------
      1      1  H 
      2      2  C        1   1.084733(     1)
      3      3  H        2   1.076921(     2)      1  116.999(    13)
      4      4  C        2   1.371012(     3)      1  121.198(    14)      3  169.635(    24)      0
      5      5  H        4   1.093263(     4)      2  117.372(    15)      1  -21.367(    25)      0
      6      6  C        4   1.388607(     5)      2  127.935(    16)      5  177.715(    26)      0
      7      7  H        6   1.086663(     6)      4  118.965(    17)      2  151.045(    27)      0
      8      8  C        6   1.506502(     7)      4  123.546(    18)      7  178.401(    28)      0
      9      9  H        8   1.095571(     8)      6  107.895(    19)      4  167.985(    29)      0
     10     10  H        8   1.092698(     9)      6  112.365(    20)      9  118.610(    30)      0
     11     11  C        8   1.457407(    10)      6  103.251(    21)      9 -118.232(    31)      0
     12     12  H       11   1.080379(    11)      8  119.034(    22)      6   66.669(    32)      0
     13     13  H       11   1.078789(    12)      8  122.882(    23)     12 -179.722(    33)      0
 ---------------------------------------------------------------------------------------------------
                         Z-Matrix orientation:                         
 ---------------------------------------------------------------------
 Center     Atomic      Atomic             Coordinates (Angstroms)
 Number     Number       Type             X           Y           Z
 ---------------------------------------------------------------------
      1          1           0        0.000000    0.000000    0.000000
      2          6           0        0.000000    0.000000    1.084733
      3          1           0        0.959548    0.000000    1.573636
      4          6           0       -1.153601    0.210990    1.794918
      5          1           0       -1.973591    0.720563    1.281912
      6          6           0       -1.439767   -0.183335    3.095244
      7          1           0       -2.132142    0.411211    3.685133
      8          6           0       -0.867161   -1.421295    3.734870
      9          1           0       -1.079354   -1.374290    4.808668
     10          1           0       -1.319067   -2.337104    3.346201
     11          6           0        0.560489   -1.306830    3.465150
     12          1           0        1.120134   -0.509606    3.932535
     13          1           0        1.089221   -1.983319    2.812012
 ---------------------------------------------------------------------
                    Distance matrix (angstroms):
                    1          2          3          4          5
     1  H    0.000000
     2  C    1.084733   0.000000
     3  H    1.843112   1.076921   0.000000
     4  C    2.144072   1.371012   2.135153   0.000000
     5  H    2.461213   2.110249   3.034405   1.093263   0.000000
     6  C    3.418636   2.479656   2.847036   1.388607   2.095273
     7  H    4.277304   3.387802   3.766439   2.137883   2.428232
     8  C    4.089169   3.129740   3.166683   2.551434   3.439295
     9  H    5.116343   4.113559   4.063401   3.406070   4.198342
    10  H    4.289412   3.509448   3.714314   2.987748   3.746868
    11  C    3.745560   2.772785   2.333427   2.834000   3.911319
    12  H    4.120586   3.102317   2.418655   3.202895   4.255614
    13  H    3.609345   2.846656   2.341783   3.298443   4.362683
                    6          7          8          9         10
     6  C    0.000000
     7  H    1.086663   0.000000
     8  C    1.506502   2.227269   0.000000
     9  H    2.117568   2.357691   1.095571   0.000000
    10  H    2.171698   2.886035   1.092698   1.767281   0.000000
    11  C    2.323811   3.201612   1.457407   2.121008   2.146705
    12  H    2.713044   3.389161   2.195357   2.520523   3.103746
    13  H    3.117042   4.107712   2.234943   3.010028   2.492062
                   11         12         13
    11  C    0.000000
    12  H    1.080379   0.000000
    13  H    1.078789   1.851583   0.000000
 Symmetry turned off by external request.
 Stoichiometry    C5H8
 Framework group  C1[X(C5H8)]
 Deg. of freedom    33
 Full point group                 C1      NOp   1
 Rotational constants (GHZ):           8.5079614           4.4899980           3.1933734
 1\1\GINC-BHC0070\FTS\RB3LYP\def2TZVP\C5H8\DHANAWAY\10-Jun-2022\1\\# Op
 t=(TS, CalcFC, noeigentest, Z-matrix, MaxStep=10) Field=read NoSymm B3
 LYP/Def2TZVP freq=noraman pop=none\\ts_zmat_initalOpt\\0,1\H\C,1,R2\H,
 2,R3,1,A3\C,2,R4,1,A4,3,D4,0\H,4,R5,2,A5,1,D5,0\C,4,R6,2,A6,5,D6,0\H,6
 ,R7,4,A7,2,D7,0\C,6,R8,4,A8,7,D8,0\H,8,R9,6,A9,4,D9,0\H,8,R10,6,A10,9,
 D10,0\C,8,R11,6,A11,9,D11,0\H,11,R12,8,A12,6,D12,0\H,11,R13,8,A13,12,D
 13,0\\R2=1.08473328\R3=1.07692052\R4=1.37101215\R5=1.09326288\R6=1.388
 60678\R7=1.0866632\R8=1.50650155\R9=1.09557123\R10=1.09269767\R11=1.45
 740692\R12=1.080379\R13=1.07878913\A3=116.9994509\A4=121.19822728\A5=1
 17.37172529\A6=127.9351239\A7=118.96470076\A8=123.54607223\A9=107.8945
 4628\A10=112.36493316\A11=103.25077738\A12=119.033758\A13=122.88167131
 \D4=169.63533476\D5=-21.36742135\D6=177.71539001\D7=151.04492055\D8=17
 8.40144358\D9=167.98456158\D10=118.60988011\D11=-118.2322778\D12=66.66
 918898\D13=-179.72224099\\Version=ES64L-G16RevA.03\HF=-195.2769893\RMS
 D=6.917e-09\RMSF=2.946e-05\Dipole=-0.1138781,-0.1314721,0.4350203\PG=C
 01 [X(C5H8)]\\@


 My opinions may have changed, but not the fact that I am right.
                       -- Ashleigh Brilliant
 Job cpu time:       0 days  0 hours 33 minutes 48.0 seconds.
 Elapsed time:       0 days  0 hours  2 minutes 53.1 seconds.
 File lengths (MBytes):  RWF=     47 Int=      0 D2E=      0 Chk=     32 Scr=      1
 Normal termination of Gaussian 16 at Fri Jun 10 22:42:58 2022.
 Link1:  Proceeding to internal job step number  2.
 --------------------------------------------------------------------
 #N Geom=AllCheck Guess=TCheck SCRF=Check GenChk RB3LYP/def2TZVP Freq
 --------------------------------------------------------------------
 1/5=1,8=10,10=4,11=1,29=7,30=1,38=1,40=1/1,3;
 2/12=2,15=1,40=1/2;
 3/5=44,7=101,11=2,14=-4,25=1,30=1,70=2,71=2,74=-5,116=1,140=1/1,2,3;
 4/5=101/1;
 5/5=2,38=6,98=1/2;
 8/6=4,10=90,11=11/1;
 11/6=1,8=1,9=11,15=111,16=1,31=1/1,2,10;
 10/6=1,31=1/2;
 7/8=1,10=1,25=1,30=1/1,2,3,16;
 1/5=1,8=10,10=4,11=1,30=1/3;
 99//99;
 Structure from the checkpoint file:  "checkpoint.chk"
 -----------------
 ts_zmat_initalOpt
 -----------------
 Charge =  0 Multiplicity = 1
 Z-Matrix found in chk file.
 H
 C,1,R2
 H,2,R3,1,A3
 C,2,R4,1,A4,3,D4,0
 H,4,R5,2,A5,1,D5,0
 C,4,R6,2,A6,5,D6,0
 H,6,R7,4,A7,2,D7,0
 C,6,R8,4,A8,7,D8,0
 H,8,R9,6,A9,4,D9,0
 H,8,R10,6,A10,9,D10,0
 C,8,R11,6,A11,9,D11,0
 H,11,R12,8,A12,6,D12,0
 H,11,R13,8,A13,12,D13,0
      Variables:
 R2=1.08473328
 R3=1.07692052
 R4=1.37101215
 R5=1.09326288
 R6=1.38860678
 R7=1.0866632
 R8=1.50650155
 R9=1.09557123
 R10=1.09269767
 R11=1.45740692
 R12=1.080379
 R13=1.07878913
 A3=116.9994509
 A4=121.19822728
 A5=117.37172529
 A6=127.9351239
 A7=118.96470076
 A8=123.54607223
 A9=107.89454628
 A10=112.36493316
 A11=103.25077738
 A12=119.033758
 A13=122.88167131
 D4=169.63533476
 D5=-21.36742135
 D6=177.71539001
 D7=151.04492055
 D8=178.40144358
 D9=167.98456158
 D10=118.60988011
 D11=-118.2322778
 D12=66.66918898
 D13=-179.72224099
 Recover connectivity data from disk.

 GradGradGradGradGradGradGradGradGradGradGradGradGradGradGradGradGradGrad
 Berny optimization.
 Initialization pass.
                       ----------------------------
                       !    Initial Parameters    !
                       ! (Angstroms and Degrees)  !
 ----------------------                            ----------------------
 !      Name          Value   Derivative information (Atomic Units)     !
 ------------------------------------------------------------------------
 !       R2          1.0847   calculate D2E/DX2 analytically            !
 !       R3          1.0769   calculate D2E/DX2 analytically            !
 !       R4          1.371    calculate D2E/DX2 analytically            !
 !       R5          1.0933   calculate D2E/DX2 analytically            !
 !       R6          1.3886   calculate D2E/DX2 analytically            !
 !       R7          1.0867   calculate D2E/DX2 analytically            !
 !       R8          1.5065   calculate D2E/DX2 analytically            !
 !       R9          1.0956   calculate D2E/DX2 analytically            !
 !       R10         1.0927   calculate D2E/DX2 analytically            !
 !       R11         1.4574   calculate D2E/DX2 analytically            !
 !       R12         1.0804   calculate D2E/DX2 analytically            !
 !       R13         1.0788   calculate D2E/DX2 analytically            !
 !       A3        116.9995   calculate D2E/DX2 analytically            !
 !       A4        121.1982   calculate D2E/DX2 analytically            !
 !       A5        117.3717   calculate D2E/DX2 analytically            !
 !       A6        127.9351   calculate D2E/DX2 analytically            !
 !       A7        118.9647   calculate D2E/DX2 analytically            !
 !       A8        123.5461   calculate D2E/DX2 analytically            !
 !       A9        107.8945   calculate D2E/DX2 analytically            !
 !       A10       112.3649   calculate D2E/DX2 analytically            !
 !       A11       103.2508   calculate D2E/DX2 analytically            !
 !       A12       119.0338   calculate D2E/DX2 analytically            !
 !       A13       122.8817   calculate D2E/DX2 analytically            !
 !       D4        169.6353   calculate D2E/DX2 analytically            !
 !       D5        -21.3674   calculate D2E/DX2 analytically            !
 !       D6        177.7154   calculate D2E/DX2 analytically            !
 !       D7        151.0449   calculate D2E/DX2 analytically            !
 !       D8        178.4014   calculate D2E/DX2 analytically            !
 !       D9        167.9846   calculate D2E/DX2 analytically            !
 !       D10       118.6099   calculate D2E/DX2 analytically            !
 !       D11      -118.2323   calculate D2E/DX2 analytically            !
 !       D12        66.6692   calculate D2E/DX2 analytically            !
 !       D13      -179.7222   calculate D2E/DX2 analytically            !
 ------------------------------------------------------------------------
 Trust Radius=1.00D-01 FncErr=1.00D-07 GrdErr=1.00D-07 EigMax=2.50D+02 EigMin=1.00D-04
 Number of steps in this run=      2 maximum allowed number of steps=      2.
 Search for a saddle point of order  1.
 GradGradGradGradGradGradGradGradGradGradGradGradGradGradGradGradGradGrad

                          Input orientation:                          
 ---------------------------------------------------------------------
 Center     Atomic      Atomic             Coordinates (Angstroms)
 Number     Number       Type             X           Y           Z
 ---------------------------------------------------------------------
      1          1           0        0.000000    0.000000    0.000000
      2          6           0        0.000000    0.000000    1.084733
      3          1           0        0.959548    0.000000    1.573636
      4          6           0       -1.153601    0.210990    1.794918
      5          1           0       -1.973591    0.720563    1.281912
      6          6           0       -1.439767   -0.183335    3.095244
      7          1           0       -2.132142    0.411211    3.685133
      8          6           0       -0.867161   -1.421295    3.734870
      9          1           0       -1.079354   -1.374290    4.808668
     10          1           0       -1.319067   -2.337104    3.346201
     11          6           0        0.560489   -1.306830    3.465150
     12          1           0        1.120134   -0.509606    3.932535
     13          1           0        1.089221   -1.983319    2.812012
 ---------------------------------------------------------------------
                    Distance matrix (angstroms):
                    1          2          3          4          5
     1  H    0.000000
     2  C    1.084733   0.000000
     3  H    1.843112   1.076921   0.000000
     4  C    2.144072   1.371012   2.135153   0.000000
     5  H    2.461213   2.110249   3.034405   1.093263   0.000000
     6  C    3.418636   2.479656   2.847036   1.388607   2.095273
     7  H    4.277304   3.387802   3.766439   2.137883   2.428232
     8  C    4.089169   3.129740   3.166683   2.551434   3.439295
     9  H    5.116343   4.113559   4.063401   3.406070   4.198342
    10  H    4.289412   3.509448   3.714314   2.987748   3.746868
    11  C    3.745560   2.772785   2.333427   2.834000   3.911319
    12  H    4.120586   3.102317   2.418655   3.202895   4.255614
    13  H    3.609345   2.846656   2.341783   3.298443   4.362683
                    6          7          8          9         10
     6  C    0.000000
     7  H    1.086663   0.000000
     8  C    1.506502   2.227269   0.000000
     9  H    2.117568   2.357691   1.095571   0.000000
    10  H    2.171698   2.886035   1.092698   1.767281   0.000000
    11  C    2.323811   3.201612   1.457407   2.121008   2.146705
    12  H    2.713044   3.389161   2.195357   2.520523   3.103746
    13  H    3.117042   4.107712   2.234943   3.010028   2.492062
                   11         12         13
    11  C    0.000000
    12  H    1.080379   0.000000
    13  H    1.078789   1.851583   0.000000
 Symmetry turned off by external request.
 Stoichiometry    C5H8
 Framework group  C1[X(C5H8)]
 Deg. of freedom    33
 Full point group                 C1      NOp   1
 Rotational constants (GHZ):           8.5079614           4.4899980           3.1933734
 Standard basis: def2TZVP (5D, 7F)
 The following finite field(s) will be applied:
 An electric field of              0.0002  0.0003 -0.0025
   203 basis functions,   319 primitive gaussians,   228 cartesian basis functions
    19 alpha electrons       19 beta electrons
       nuclear repulsion energy       162.0334717818 Hartrees.
 NAtoms=   13 NActive=   13 NUniq=   13 SFac= 1.00D+00 NAtFMM=   60 NAOKFM=F Big=F
 Integral buffers will be    131072 words long.
 Raffenetti 2 integral format.
 Two-electron integral symmetry is turned off.
 One-electron integrals computed using PRISM.
   1 Symmetry operations used in ECPInt.
 ECPInt:  NShTT=    3828 NPrTT=   11160 LenC2=    3812 LenP2D=    9471.
 LDataN:  DoStor=T MaxTD1= 6 Len=  172
 NBasis=   203 RedAO= T EigKep=  1.52D-04  NBF=   203
 NBsUse=   203 1.00D-06 EigRej= -1.00D+00 NBFU=   203
 The nuclear repulsion energy is now       161.5431833999 hartrees.
 Initial guess from the checkpoint file:  "checkpoint.chk"
 B after Tr=     0.000000    0.000000    0.000000
         Rot=    1.000000    0.000000    0.000000    0.000000 Ang=   0.00 deg.
 Requested convergence on RMS density matrix=1.00D-08 within 128 cycles.
 Requested convergence on MAX density matrix=1.00D-06.
 Requested convergence on             energy=1.00D-06.
 No special actions if energy rises.
 SCF Done:  E(RB3LYP) =  -195.276989332     A.U. after    1 cycles
            NFock=  1  Conv=0.41D-08     -V/T= 2.0056
 DoSCS=F DFT=T ScalE2(SS,OS)=  1.000000  1.000000
 Range of M.O.s used for correlation:     1   203
 NBasis=   203 NAE=    19 NBE=    19 NFC=     0 NFV=     0
 NROrb=    203 NOA=    19 NOB=    19 NVA=   184 NVB=   184

 **** Warning!!: The largest alpha MO coefficient is  0.19122210D+02

   1 Symmetry operations used in ECPInt.
 ECPInt:  NShTT=    3828 NPrTT=   11160 LenC2=    3812 LenP2D=    9471.
 LDataN:  DoStor=T MaxTD1= 7 Len=  274
 Symmetrizing basis deriv contribution to polar:
 IMax=3 JMax=2 DiffMx= 0.00D+00
 G2DrvN: will do    14 centers at a time, making    1 passes.
 Calling FoFCou, ICntrl=  3107 FMM=F I1Cent=   0 AccDes= 0.00D+00.
 End of G2Drv F.D. properties file   721 does not exist.
 End of G2Drv F.D. properties file   722 does not exist.
 End of G2Drv F.D. properties file   788 does not exist.
          IDoAtm=1111111111111
          Differentiating once with respect to electric field.
                with respect to dipole field.
          Differentiating once with respect to nuclear coordinates.
 Keep R1 ints in memory in canonical form, NReq=227048987.
          There are    42 degrees of freedom in the 1st order CPHF.  IDoFFX=6 NUNeed=     3.
     39 vectors produced by pass  0 Test12= 8.32D-15 2.38D-09 XBig12= 1.94D+02 1.12D+01.
 AX will form    39 AO Fock derivatives at one time.
     39 vectors produced by pass  1 Test12= 8.32D-15 2.38D-09 XBig12= 5.01D+01 1.76D+00.
     39 vectors produced by pass  2 Test12= 8.32D-15 2.38D-09 XBig12= 6.75D-01 9.91D-02.
     39 vectors produced by pass  3 Test12= 8.32D-15 2.38D-09 XBig12= 2.04D-03 8.05D-03.
     39 vectors produced by pass  4 Test12= 8.32D-15 2.38D-09 XBig12= 2.82D-06 1.89D-04.
     31 vectors produced by pass  5 Test12= 8.32D-15 2.38D-09 XBig12= 2.64D-09 6.55D-06.
      4 vectors produced by pass  6 Test12= 8.32D-15 2.38D-09 XBig12= 2.79D-12 1.99D-07.
      3 vectors produced by pass  7 Test12= 8.32D-15 2.38D-09 XBig12= 2.73D-15 5.83D-09.
 InvSVY:  IOpt=1 It=  1 EMax= 1.78D-14
 Solved reduced A of dimension   233 with    42 vectors.
 Isotropic polarizability for W=    0.000000       74.57 Bohr**3.
 End of Minotr F.D. properties file   721 does not exist.
 End of Minotr F.D. properties file   722 does not exist.
 End of Minotr F.D. properties file   788 does not exist.
   1 Symmetry operations used in ECPInt.
 ECPInt:  NShTT=    3828 NPrTT=   11160 LenC2=    3812 LenP2D=    9471.
 LDataN:  DoStor=T MaxTD1= 8 Len=  415
 Calling FoFJK, ICntrl=    100127 FMM=F ISym2X=0 I1Cent= 0 IOpClX= 0 NMat=1 NMatS=1 NMatT=0.
 Full mass-weighted force constant matrix:
 Low frequencies --- -423.8227   -4.7202   -2.6148   -0.0006   -0.0005    0.0004
 Low frequencies ---    8.3711  220.8682  258.3282
 ******    1 imaginary frequencies (negative Signs) ****** 
 Diagonal vibrational polarizability:
        2.8964678       5.4067628       3.3033091
 Harmonic frequencies (cm**-1), IR intensities (KM/Mole), Raman scattering
 activities (A**4/AMU), depolarization ratios for plane and unpolarized
 incident light, reduced masses (AMU), force constants (mDyne/A),
 and normal coordinates:
                      1                      2                      3
                      A                      A                      A
 Frequencies --   -423.8227               220.8681               258.3279
 Red. masses --      1.9609                 2.1888                 2.3155
 Frc consts  --      0.2075                 0.0629                 0.0910
 IR Inten    --      0.0670                 0.4363                 1.0855
  Atom  AN      X      Y      Z        X      Y      Z        X      Y      Z
     1   1    -0.07   0.34  -0.12     0.05   0.43  -0.06    -0.23   0.09  -0.12
     2   6    -0.06   0.07  -0.12     0.03   0.19  -0.07    -0.09  -0.01  -0.12
     3   1    -0.06  -0.34  -0.11     0.01   0.03  -0.02    -0.04  -0.38  -0.21
     4   6     0.02  -0.04  -0.06    -0.00  -0.05  -0.07     0.01   0.14   0.03
     5   1    -0.05  -0.11  -0.01    -0.04  -0.11  -0.05     0.08   0.34   0.14
     6   6     0.14  -0.01   0.03    -0.03  -0.08  -0.06    -0.07  -0.03  -0.06
     7   1     0.45   0.22   0.16    -0.06  -0.04  -0.13    -0.21  -0.17  -0.09
     8   6    -0.06  -0.10   0.03     0.01   0.05   0.16     0.05   0.02  -0.06
     9   1    -0.17  -0.14  -0.00     0.15   0.41   0.17    -0.11  -0.04  -0.08
    10   1     0.02  -0.08  -0.09    -0.12  -0.04   0.53     0.12   0.01  -0.13
    11   6    -0.05   0.05   0.13    -0.00  -0.14   0.02     0.11  -0.09   0.21
    12   1    -0.09  -0.03   0.31     0.13  -0.12  -0.17     0.01   0.09   0.03
    13   1    -0.07   0.37  -0.22    -0.16  -0.24  -0.01     0.22  -0.25   0.46
                      4                      5                      6
                      A                      A                      A
 Frequencies --    373.2723               547.1694               586.4229
 Red. masses --      2.2843                 1.2911                 1.3133
 Frc consts  --      0.1875                 0.2277                 0.2661
 IR Inten    --      6.2625                 7.7720                 3.6535
  Atom  AN      X      Y      Z        X      Y      Z        X      Y      Z
     1   1    -0.12   0.12  -0.05    -0.31  -0.26  -0.11     0.09  -0.19   0.03
     2   6     0.04  -0.06  -0.05     0.02   0.03  -0.10    -0.03  -0.05   0.03
     3   1     0.12  -0.33  -0.21     0.17   0.59  -0.40    -0.08   0.01   0.14
     4   6     0.14   0.09   0.09     0.07  -0.01   0.07    -0.04   0.11  -0.03
     5   1     0.26   0.40   0.20    -0.03  -0.16   0.06    -0.01   0.18  -0.00
     6   6    -0.07  -0.14  -0.02     0.02   0.01   0.03    -0.02  -0.02  -0.07
     7   1    -0.01  -0.08  -0.01    -0.27  -0.18  -0.12    -0.00  -0.07  -0.01
     8   6    -0.02  -0.07   0.09    -0.03  -0.01   0.01     0.04  -0.03   0.01
     9   1     0.08   0.15   0.10    -0.01  -0.02   0.02     0.16   0.26   0.01
    10   1     0.03  -0.18   0.30    -0.09   0.02  -0.00    -0.04  -0.10   0.27
    11   6    -0.10   0.14  -0.10    -0.03   0.00   0.02     0.03  -0.00   0.01
    12   1    -0.20   0.30  -0.26    -0.00  -0.18   0.28     0.13  -0.41   0.58
    13   1    -0.06   0.18  -0.11    -0.01   0.04  -0.00    -0.02   0.27  -0.30
                      7                      8                      9
                      A                      A                      A
 Frequencies --    654.6730               710.9278               763.0082
 Red. masses --      1.4641                 1.3587                 1.2415
 Frc consts  --      0.3697                 0.4046                 0.4258
 IR Inten    --     13.9821                35.4721                54.0028
  Atom  AN      X      Y      Z        X      Y      Z        X      Y      Z
     1   1     0.10  -0.20  -0.01     0.07  -0.00  -0.00     0.04   0.59  -0.02
     2   6    -0.02   0.01  -0.01    -0.00  -0.06   0.00     0.00  -0.07  -0.02
     3   1    -0.08   0.32   0.10     0.00   0.59  -0.03     0.02   0.30  -0.06
     4   6    -0.06   0.06  -0.04    -0.04   0.07  -0.03    -0.00  -0.07   0.01
     5   1    -0.08   0.15   0.09    -0.01   0.18   0.04     0.18   0.31   0.09
     6   6     0.13  -0.03  -0.04     0.01  -0.02  -0.06    -0.07   0.00  -0.01
     7   1     0.27   0.03   0.07     0.18   0.10   0.03     0.17   0.25   0.04
     8   6    -0.00  -0.08   0.02     0.00  -0.02   0.07     0.02   0.02   0.02
     9   1     0.03   0.12   0.02    -0.25  -0.11   0.02    -0.01  -0.13   0.01
    10   1    -0.07  -0.11   0.17     0.16  -0.02  -0.12     0.08   0.05  -0.12
    11   6    -0.06   0.03  -0.03     0.03  -0.06   0.08    -0.00   0.04  -0.04
    12   1    -0.21   0.09   0.03     0.05   0.23  -0.42     0.17  -0.27   0.30
    13   1     0.24  -0.35   0.61    -0.21   0.16  -0.34    -0.00  -0.18   0.20
                     10                     11                     12
                      A                      A                      A
 Frequencies --    775.9174               825.3602               896.2575
 Red. masses --      1.3911                 1.4809                 1.4721
 Frc consts  --      0.4935                 0.5944                 0.6967
 IR Inten    --     22.3191                 8.0588                 3.7811
  Atom  AN      X      Y      Z        X      Y      Z        X      Y      Z
     1   1     0.01   0.53   0.03     0.14   0.19   0.01     0.04  -0.42  -0.03
     2   6    -0.03  -0.09   0.03    -0.03  -0.03   0.01     0.03   0.09  -0.03
     3   1    -0.01   0.22  -0.02    -0.10  -0.12   0.14    -0.02  -0.03   0.07
     4   6    -0.01  -0.03   0.02    -0.03  -0.00  -0.00    -0.05  -0.16   0.02
     5   1     0.01   0.03   0.06    -0.03   0.16   0.18     0.26   0.70   0.37
     6   6     0.08   0.03   0.02     0.17  -0.04  -0.02     0.01   0.00  -0.00
     7   1    -0.15  -0.18  -0.06    -0.44  -0.48  -0.29     0.03   0.07  -0.06
     8   6    -0.03   0.02  -0.11    -0.02   0.05   0.05    -0.03   0.04  -0.03
     9   1     0.20   0.33  -0.07    -0.23  -0.11   0.01     0.01   0.05  -0.02
    10   1    -0.26  -0.01   0.24     0.09   0.09  -0.19    -0.09   0.06   0.00
    11   6     0.01  -0.05   0.03    -0.04   0.06  -0.02     0.02  -0.02   0.02
    12   1    -0.32   0.23  -0.03     0.24  -0.14  -0.01    -0.07   0.06   0.01
    13   1     0.24   0.25  -0.09    -0.29  -0.13  -0.03     0.07   0.16  -0.13
                     13                     14                     15
                      A                      A                      A
 Frequencies --    928.7623              1029.3231              1063.1221
 Red. masses --      1.8889                 1.5618                 1.6599
 Frc consts  --      0.9600                 0.9750                 1.1054
 IR Inten    --      3.0300                 0.0350                13.2376
  Atom  AN      X      Y      Z        X      Y      Z        X      Y      Z
     1   1     0.39   0.08  -0.10     0.63  -0.08  -0.14     0.02  -0.01   0.02
     2   6     0.04  -0.02  -0.10    -0.01  -0.02  -0.15    -0.04  -0.00   0.01
     3   1    -0.08  -0.02   0.14    -0.28   0.14   0.41    -0.10  -0.02   0.12
     4   6    -0.03   0.03  -0.08     0.06   0.01   0.07     0.05   0.03   0.05
     5   1     0.04   0.15  -0.08    -0.22  -0.19   0.31    -0.16  -0.19   0.16
     6   6    -0.05   0.14   0.08    -0.05  -0.05   0.07     0.01  -0.11  -0.08
     7   1    -0.43  -0.11  -0.11     0.07   0.01   0.15     0.15   0.23  -0.27
     8   6     0.02  -0.11   0.13     0.00   0.05  -0.07    -0.05   0.10   0.09
     9   1     0.25  -0.43   0.20     0.06   0.12  -0.06    -0.12  -0.26   0.08
    10   1    -0.10   0.02  -0.04     0.04  -0.01   0.03    -0.33   0.36  -0.22
    11   6     0.02  -0.04  -0.03    -0.03   0.01   0.03     0.07  -0.04  -0.08
    12   1    -0.25   0.11   0.05     0.07  -0.01  -0.04    -0.23   0.03   0.18
    13   1     0.28   0.15  -0.01    -0.15  -0.04  -0.01     0.43   0.19  -0.02
                     16                     17                     18
                      A                      A                      A
 Frequencies --   1130.3453              1153.9908              1219.5256
 Red. masses --      2.1990                 1.9180                 1.2532
 Frc consts  --      1.6554                 1.5049                 1.0981
 IR Inten    --     15.5353                 0.2035                 5.3948
  Atom  AN      X      Y      Z        X      Y      Z        X      Y      Z
     1   1     0.02   0.02   0.00     0.11   0.01  -0.06    -0.05  -0.03   0.02
     2   6    -0.05   0.01  -0.00     0.09  -0.02  -0.04    -0.01  -0.00   0.02
     3   1    -0.13   0.04   0.16     0.19  -0.01  -0.23    -0.00   0.05  -0.01
     4   6     0.05  -0.02   0.04    -0.09   0.05  -0.06     0.00   0.02  -0.02
     5   1     0.03  -0.06   0.02     0.07   0.11  -0.26     0.01   0.03  -0.02
     6   6    -0.01   0.08   0.00    -0.00  -0.11   0.11     0.03  -0.05  -0.00
     7   1    -0.13   0.22  -0.26     0.14  -0.41   0.59     0.03   0.17  -0.22
     8   6    -0.17  -0.14   0.01    -0.13   0.07   0.00    -0.10   0.02  -0.05
     9   1    -0.47   0.26  -0.07    -0.16  -0.02  -0.00     0.71  -0.46   0.14
    10   1    -0.13  -0.27   0.26    -0.32   0.14   0.04    -0.11  -0.07   0.16
    11   6     0.20   0.07  -0.04     0.10   0.03  -0.02     0.03   0.04   0.06
    12   1     0.45  -0.03  -0.16     0.18  -0.04   0.01     0.24  -0.00  -0.13
    13   1     0.15  -0.08   0.05     0.13  -0.01   0.03    -0.17  -0.08   0.01
                     19                     20                     21
                      A                      A                      A
 Frequencies --   1266.0997              1307.2033              1400.1419
 Red. masses --      1.2646                 1.3023                 1.3632
 Frc consts  --      1.1944                 1.3111                 1.5746
 IR Inten    --     16.8445                 6.5162                 3.3254
  Atom  AN      X      Y      Z        X      Y      Z        X      Y      Z
     1   1     0.06   0.08   0.00    -0.01   0.00  -0.00    -0.35   0.04   0.02
     2   6     0.11  -0.02   0.01     0.01  -0.00  -0.00     0.00  -0.00   0.01
     3   1     0.28  -0.16  -0.31     0.03  -0.00  -0.03    -0.15   0.02   0.29
     4   6    -0.09   0.02  -0.02    -0.01   0.00  -0.01     0.08  -0.04  -0.03
     5   1    -0.56  -0.09   0.63    -0.06  -0.01   0.06    -0.14  -0.03   0.34
     6   6    -0.02   0.03  -0.01     0.02   0.00   0.02    -0.03   0.08  -0.12
     7   1    -0.01   0.14  -0.10     0.00  -0.01   0.01     0.10  -0.44   0.54
     8   6     0.00  -0.03  -0.01    -0.11   0.10   0.01    -0.04  -0.01   0.03
     9   1    -0.01   0.05  -0.01     0.00  -0.10   0.04     0.17  -0.12   0.08
    10   1    -0.05  -0.01   0.01     0.80  -0.42   0.15    -0.04   0.03  -0.05
    11   6     0.01   0.01   0.00     0.00  -0.06  -0.05    -0.00   0.01   0.01
    12   1     0.05  -0.01  -0.01    -0.12  -0.05   0.10     0.15  -0.03  -0.10
    13   1    -0.02  -0.01   0.00     0.27   0.09   0.01     0.12   0.07   0.03
                     22                     23                     24
                      A                      A                      A
 Frequencies --   1424.2364              1482.3973              1497.8061
 Red. masses --      1.1108                 1.2626                 1.4497
 Frc consts  --      1.3276                 1.6347                 1.9163
 IR Inten    --     11.3657                 6.8506                 1.6519
  Atom  AN      X      Y      Z        X      Y      Z        X      Y      Z
     1   1    -0.08   0.01   0.00     0.44  -0.04   0.01     0.49  -0.04   0.02
     2   6     0.00  -0.00   0.00    -0.06   0.01   0.02    -0.07   0.02   0.03
     3   1    -0.03   0.02   0.06     0.14  -0.05  -0.34     0.14  -0.06  -0.38
     4   6     0.01  -0.00  -0.02    -0.01  -0.02   0.06     0.01  -0.03   0.07
     5   1    -0.03   0.01   0.07     0.07  -0.04  -0.08     0.06  -0.07  -0.03
     6   6    -0.00   0.01   0.00     0.01   0.03  -0.06     0.00   0.06  -0.11
     7   1    -0.00  -0.02   0.03     0.04  -0.07   0.05     0.09  -0.18   0.21
     8   6     0.07   0.05  -0.04     0.03   0.01  -0.01    -0.04  -0.01   0.02
     9   1    -0.42  -0.54  -0.10    -0.05  -0.16  -0.01     0.10  -0.07   0.05
    10   1    -0.19  -0.14   0.63    -0.06  -0.01   0.14     0.03  -0.03  -0.01
    11   6     0.00   0.00  -0.01    -0.09  -0.01   0.02     0.09   0.01  -0.01
    12   1    -0.13   0.04   0.08     0.43  -0.20  -0.27    -0.36   0.17   0.24
    13   1    -0.12  -0.06  -0.04     0.42   0.30   0.10    -0.37  -0.27  -0.09
                     25                     26                     27
                      A                      A                      A
 Frequencies --   1591.6257              3011.6737              3054.8951
 Red. masses --      4.0731                 1.0580                 1.0853
 Frc consts  --      6.0794                 5.6539                 5.9674
 IR Inten    --     19.9494                18.5288                19.5897
  Atom  AN      X      Y      Z        X      Y      Z        X      Y      Z
     1   1    -0.31   0.13  -0.17    -0.00  -0.00  -0.00    -0.00  -0.00  -0.07
     2   6     0.22  -0.03  -0.16     0.00   0.00  -0.00     0.00   0.00   0.00
     3   1    -0.07  -0.15   0.45     0.00   0.00   0.00     0.00   0.00   0.00
     4   6    -0.25   0.01   0.33    -0.00   0.00  -0.00    -0.06   0.03  -0.03
     5   1     0.12  -0.20  -0.48     0.01  -0.01   0.01     0.67  -0.42   0.42
     6   6     0.06   0.06  -0.17    -0.00   0.00   0.00     0.01  -0.00  -0.00
     7   1     0.15   0.02  -0.05     0.04  -0.02  -0.03    -0.08   0.07   0.06
     8   6    -0.01  -0.01   0.00     0.03   0.03  -0.05     0.01   0.02   0.03
     9   1     0.05  -0.11   0.01    -0.16   0.05   0.80     0.05  -0.01  -0.23
    10   1     0.01  -0.06   0.09    -0.23  -0.47  -0.22    -0.14  -0.28  -0.12
    11   6    -0.00   0.01   0.01    -0.00   0.00  -0.00    -0.00  -0.00  -0.00
    12   1     0.01   0.01  -0.01     0.00   0.00   0.00     0.01   0.01   0.00
    13   1    -0.04   0.02  -0.02     0.00   0.00  -0.01    -0.01   0.01   0.01
                     28                     29                     30
                      A                      A                      A
 Frequencies --   3058.0455              3133.4143              3138.8039
 Red. masses --      1.0992                 1.0841                 1.0680
 Frc consts  --      6.0566                 6.2710                 6.1994
 IR Inten    --     15.5325                24.1388                 6.1259
  Atom  AN      X      Y      Z        X      Y      Z        X      Y      Z
     1   1    -0.00  -0.00  -0.03    -0.00  -0.00  -0.30     0.01  -0.00   0.87
     2   6     0.00   0.00   0.00    -0.01  -0.00   0.02     0.03   0.00  -0.06
     3   1    -0.00   0.00  -0.00     0.13   0.00   0.07    -0.31  -0.00  -0.18
     4   6    -0.03   0.02  -0.02    -0.00   0.00  -0.01    -0.01   0.01  -0.00
     5   1     0.32  -0.20   0.20     0.05  -0.03   0.04     0.07  -0.05   0.04
     6   6    -0.00   0.00   0.00    -0.05   0.04   0.04    -0.02   0.01   0.02
     7   1     0.02  -0.01  -0.01     0.59  -0.50  -0.51     0.21  -0.17  -0.18
     8   6    -0.02  -0.05  -0.06     0.00   0.00   0.01    -0.00   0.00   0.00
     9   1    -0.10   0.01   0.49     0.01  -0.00  -0.08     0.00  -0.00  -0.03
    10   1     0.31   0.63   0.27    -0.01  -0.02  -0.01    -0.01  -0.01  -0.00
    11   6     0.00   0.00   0.00    -0.00  -0.00  -0.00    -0.00   0.00  -0.00
    12   1    -0.01  -0.03  -0.01     0.01   0.02   0.01     0.00   0.01   0.01
    13   1     0.01  -0.02  -0.02     0.00  -0.01  -0.01     0.00  -0.01  -0.00
                     31                     32                     33
                      A                      A                      A
 Frequencies --   3167.0964              3256.3701              3271.0008
 Red. masses --      1.0515                 1.1045                 1.1187
 Frc consts  --      6.2143                 6.9008                 7.0525
 IR Inten    --      3.7419                10.4869                 2.2613
  Atom  AN      X      Y      Z        X      Y      Z        X      Y      Z
     1   1     0.00  -0.00  -0.01    -0.01   0.00   0.36     0.00   0.00  -0.03
     2   6     0.00   0.00   0.00    -0.07  -0.00  -0.06     0.01   0.00   0.01
     3   1    -0.01   0.00  -0.00     0.82   0.00   0.42    -0.08  -0.00  -0.04
     4   6     0.00  -0.00   0.00    -0.00   0.00  -0.00     0.00  -0.00  -0.00
     5   1    -0.00   0.00  -0.00     0.02  -0.01   0.02    -0.00  -0.00  -0.00
     6   6     0.00  -0.00  -0.00     0.00  -0.00  -0.00     0.00  -0.00   0.00
     7   1    -0.02   0.01   0.01    -0.02   0.01   0.01    -0.00   0.00   0.00
     8   6     0.00  -0.00  -0.00    -0.00  -0.00  -0.00    -0.00  -0.00  -0.00
     9   1    -0.00  -0.00  -0.00    -0.00  -0.00   0.00    -0.01   0.00   0.03
    10   1     0.00   0.01   0.00     0.00   0.01   0.00     0.02   0.03   0.01
    11   6    -0.06  -0.01   0.01    -0.00  -0.01  -0.01     0.00  -0.08  -0.06
    12   1     0.38   0.56   0.33     0.03   0.05   0.03     0.34   0.47   0.28
    13   1     0.31  -0.42  -0.40    -0.03   0.04   0.03    -0.37   0.47   0.46

 -------------------
 - Thermochemistry -
 -------------------
 Temperature   298.150 Kelvin.  Pressure   1.00000 Atm.
 Atom     1 has atomic number  1 and mass   1.00783
 Atom     2 has atomic number  6 and mass  12.00000
 Atom     3 has atomic number  1 and mass   1.00783
 Atom     4 has atomic number  6 and mass  12.00000
 Atom     5 has atomic number  1 and mass   1.00783
 Atom     6 has atomic number  6 and mass  12.00000
 Atom     7 has atomic number  1 and mass   1.00783
 Atom     8 has atomic number  6 and mass  12.00000
 Atom     9 has atomic number  1 and mass   1.00783
 Atom    10 has atomic number  1 and mass   1.00783
 Atom    11 has atomic number  6 and mass  12.00000
 Atom    12 has atomic number  1 and mass   1.00783
 Atom    13 has atomic number  1 and mass   1.00783
 Molecular mass:    68.06260 amu.
 Principal axes and moments of inertia in atomic units:
                           1         2         3
     Eigenvalues --   212.12381 401.94700 565.15195
           X            0.07546   0.93146   0.35593
           Y           -0.52479  -0.26642   0.80846
           Z            0.84788  -0.24780   0.46872
 This molecule is an asymmetric top.
[...]
   A12        2.07753  -0.00001   0.00000  -0.00004  -0.00004   2.07750
   A13        2.14469  -0.00001   0.00000  -0.00003  -0.00003   2.14466
    D4        2.96070  -0.00000   0.00000  -0.00005  -0.00005   2.96065
    D5       -0.37293   0.00000   0.00000   0.00005   0.00005  -0.37289
    D6        3.10172   0.00000   0.00000  -0.00001  -0.00001   3.10171
    D7        2.63623  -0.00000   0.00000   0.00001   0.00001   2.63624
    D8        3.11369   0.00000   0.00000  -0.00000  -0.00000   3.11369
    D9        2.93188   0.00000   0.00000   0.00002   0.00002   2.93190
   D10        2.07013   0.00000   0.00000  -0.00001  -0.00001   2.07012
   D11       -2.06354  -0.00000   0.00000  -0.00003  -0.00003  -2.06357
   D12        1.16360  -0.00000   0.00000  -0.00005  -0.00005   1.16355
   D13       -3.13674   0.00000   0.00000   0.00007   0.00007  -3.13667
         Item               Value     Threshold  Converged?
 Maximum Force            0.000011     0.000450     YES
 RMS     Force            0.000003     0.000300     YES
 Maximum Displacement     0.000070     0.001800     YES
 RMS     Displacement     0.000023     0.001200     YES
 Predicted change in Energy=-7.329154D-10
 Optimization completed.
    -- Stationary point found.
                       ----------------------------
                       !   Optimized Parameters   !
                       ! (Angstroms and Degrees)  !
 ----------------------                            ----------------------
 !      Name          Value   Derivative information (Atomic Units)     !
 ------------------------------------------------------------------------
 !       R2          1.0847   -DE/DX =    0.0                           !
 !       R3          1.0769   -DE/DX =    0.0                           !
 !       R4          1.371    -DE/DX =    0.0                           !
 !       R5          1.0933   -DE/DX =    0.0                           !
 !       R6          1.3886   -DE/DX =    0.0                           !
 !       R7          1.0867   -DE/DX =    0.0                           !
 !       R8          1.5065   -DE/DX =    0.0                           !
 !       R9          1.0956   -DE/DX =    0.0                           !
 !       R10         1.0927   -DE/DX =    0.0                           !
 !       R11         1.4574   -DE/DX =    0.0                           !
 !       R12         1.0804   -DE/DX =    0.0                           !
 !       R13         1.0788   -DE/DX =    0.0                           !
 !       A3        116.9995   -DE/DX =    0.0                           !
 !       A4        121.1982   -DE/DX =    0.0                           !
 !       A5        117.3717   -DE/DX =    0.0                           !
 !       A6        127.9351   -DE/DX =    0.0                           !
 !       A7        118.9647   -DE/DX =    0.0                           !
 !       A8        123.5461   -DE/DX =    0.0                           !
 !       A9        107.8945   -DE/DX =    0.0                           !
 !       A10       112.3649   -DE/DX =    0.0                           !
 !       A11       103.2508   -DE/DX =    0.0                           !
 !       A12       119.0338   -DE/DX =    0.0                           !
 !       A13       122.8817   -DE/DX =    0.0                           !
 !       D4        169.6353   -DE/DX =    0.0                           !
 !       D5        -21.3674   -DE/DX =    0.0                           !
 !       D6        177.7154   -DE/DX =    0.0                           !
 !       D7        151.0449   -DE/DX =    0.0                           !
 !       D8        178.4014   -DE/DX =    0.0                           !
 !       D9        167.9846   -DE/DX =    0.0                           !
 !       D10       118.6099   -DE/DX =    0.0                           !
 !       D11      -118.2323   -DE/DX =    0.0                           !
 !       D12        66.6692   -DE/DX =    0.0                           !
 !       D13      -179.7222   -DE/DX =    0.0                           !
 ------------------------------------------------------------------------
 GradGradGradGradGradGradGradGradGradGradGradGradGradGradGradGradGradGrad


 ----------------------------------------------------------------------

 Electric dipole moment (input orientation):
 (Debye = 10**-18 statcoulomb cm , SI units = C m)
                  (au)            (Debye)         (10**-30 SI)
   Tot        0.468502D+00      0.119081D+01      0.397212D+01
   x         -0.113882D+00     -0.289459D+00     -0.965533D+00
   y         -0.131468D+00     -0.334158D+00     -0.111463D+01
   z          0.435018D+00      0.110571D+01      0.368824D+01

 Dipole polarizability, Alpha (input orientation).
 (esu units = cm**3 , SI units = C**2 m**2 J**-1)
 Alpha(0;0):
               (au)            (10**-24 esu)      (10**-40 SI)
   iso        0.745652D+02      0.110494D+02      0.122941D+02
   aniso      0.485378D+02      0.719257D+01      0.800281D+01
   xx         0.736941D+02      0.109203D+02      0.121505D+02
   yx        -0.138960D+02     -0.205917D+01     -0.229113D+01
   yy         0.619288D+02      0.917689D+01      0.102107D+02
   zx         0.241115D+01      0.357295D+00      0.397544D+00
   zy        -0.203704D+02     -0.301858D+01     -0.335862D+01
   zz         0.880726D+02      0.130510D+02      0.145212D+02

 ----------------------------------------------------------------------

 Dipole orientation:
     1          0.00000000          0.00000000          0.00000000
     6          0.49827175          0.57521575          1.90334766
     1          2.48057601          0.77033789          2.32044171
     6         -1.30280600          1.41135313          3.56750874
     1         -3.07459501          2.11775594          2.77379584
     6         -1.20335425          1.40528092          6.18970295
     1         -2.24043846          2.84201987          7.22752890
     6          0.22211790         -0.53769366          7.70547935
     1          0.32352396          0.13110552          9.66218297
     1         -0.72301984         -2.37355796          7.71671417
     6          2.70578091         -0.56866814          6.51572094
     1          3.89236340          1.08679498          6.65599852
     1          3.41952499         -2.17653781          5.48553662

 Electric dipole moment (dipole orientation):
 (Debye = 10**-18 statcoulomb cm , SI units = C m)
                  (au)            (Debye)         (10**-30 SI)
   Tot        0.468502D+00      0.119081D+01      0.397212D+01
   x          0.000000D+00      0.000000D+00      0.000000D+00
   y          0.000000D+00      0.000000D+00      0.000000D+00
   z          0.468502D+00      0.119081D+01      0.397212D+01

 Dipole polarizability, Alpha (dipole orientation).
 (esu units = cm**3 , SI units = C**2 m**2 J**-1)
 Alpha(0;0):
               (au)            (10**-24 esu)      (10**-40 SI)
   iso        0.745652D+02      0.110494D+02      0.122941D+02
   aniso      0.485378D+02      0.719257D+01      0.800281D+01
   xx         0.769684D+02      0.114055D+02      0.126904D+02
   yx        -0.154698D+02     -0.229238D+01     -0.255062D+01
   yy         0.539315D+02      0.799183D+01      0.889211D+01
   zx         0.108752D+02      0.161154D+01      0.179308D+01
   zy        -0.676669D+01     -0.100272D+01     -0.111568D+01
   zz         0.927956D+02      0.137509D+02      0.152999D+02

 ----------------------------------------------------------------------
 1\1\GINC-BHC0070\Freq\RB3LYP\def2TZVP\C5H8\DHANAWAY\10-Jun-2022\1\\#N 
 Geom=AllCheck Guess=TCheck SCRF=Check GenChk RB3LYP/def2TZVP Freq\\ts_
 zmat_initalOpt\\0,1\H\C,1,R2\H,2,R3,1,A3\C,2,R4,1,A4,3,D4,0\H,4,R5,2,A
 5,1,D5,0\C,4,R6,2,A6,5,D6,0\H,6,R7,4,A7,2,D7,0\C,6,R8,4,A8,7,D8,0\H,8,
 R9,6,A9,4,D9,0\H,8,R10,6,A10,9,D10,0\C,8,R11,6,A11,9,D11,0\H,11,R12,8,
 A12,6,D12,0\H,11,R13,8,A13,12,D13,0\\R2=1.08473328\R3=1.07692052\R4=1.
 37101215\R5=1.09326288\R6=1.38860678\R7=1.0866632\R8=1.50650155\R9=1.0
 9557123\R10=1.09269767\R11=1.45740692\R12=1.080379\R13=1.07878913\A3=1
 16.9994509\A4=121.19822728\A5=117.37172529\A6=127.9351239\A7=118.96470
 076\A8=123.54607223\A9=107.89454628\A10=112.36493316\A11=103.25077738\
 A12=119.033758\A13=122.88167131\D4=169.63533476\D5=-21.36742135\D6=177
 .71539001\D7=151.04492055\D8=178.40144358\D9=167.98456158\D10=118.6098
 8011\D11=-118.2322778\D12=66.66918898\D13=-179.72224099\\Version=ES64L
 -G16RevA.03\HF=-195.2769893\RMSD=4.090e-09\RMSF=2.946e-05\ZeroPoint=0.
 1098033\Thermal=0.1150964\Dipole=-0.1138821,-0.131468,0.4350181\Dipole
 Deriv=0.0864167,0.0051363,-0.0001704,-0.0016758,0.1507692,0.0481916,0.
 0445253,0.0027198,-0.1426646,-0.174394,-0.0897633,0.3326082,-0.0354934
 ,-0.3211002,-0.1129332,0.0916077,0.1051934,-0.0305372,0.0372306,-0.031
 3916,0.0159182,-0.0076266,0.1472909,0.0072442,-0.0324522,-0.0185092,-0
 .0689349,0.1005422,-0.0247189,-0.2095171,-0.027776,-0.18006,-0.0689119
 ,-0.1141754,-0.0978154,0.2185757,-0.0351199,0.112404,-0.0768275,0.1177
 619,0.0683405,0.0674378,-0.0794959,0.0705683,0.0292444,-0.1132589,-0.2
 061531,-0.0953371,-0.1473537,-0.0568684,0.1903806,0.0148413,-0.0426434
 ,-0.1437305,0.0200196,0.10041,0.0942813,0.0920106,0.0687484,-0.068709,
 0.0718377,-0.0139118,0.0046696,0.0391495,0.0049683,0.2514775,0.0293287
 ,0.1807339,-0.1898606,0.0520107,0.0251688,0.0652398,0.1240334,-0.04043
 73,0.0802582,0.0205492,0.0733492,0.0040843,0.0521097,0.0068563,-0.0741
 933,0.0490478,-0.0820579,-0.0013244,-0.1028306,-0.0742047,0.0050535,-0
 .0481917,-0.0755542,0.0555354,-0.1398168,0.2649191,-0.4098795,0.092868
 5,-0.094737,0.2207723,-0.091142,0.1567176,-0.0090814,0.0017489,-0.0176
 453,0.0013776,-0.0517391,-0.0071713,-0.0355309,0.0033395,-0.0489813,0.
 0483617,0.0044008,0.0043297,0.0171349,0.0219764,0.0449094,-0.0672187,0
 .0351852,-0.0698088,0.0475151\Polar=73.6941343,-13.8959639,61.9287528,
 2.4111471,-20.3703582,88.0726283\PG=C01 [X(C5H8)]\NImag=1\\0.05182605,
 -0.00352924,0.01791711,-0.00000433,-0.00008012,0.35181688,-0.05551075,
 0.01157713,-0.00248922,0.68152575,0.00682984,-0.03233746,0.00042451,-0
 .04299057,0.08782138,-0.00607108,0.00191881,-0.32942673,-0.04173139,0.
 02824452,0.64167601,0.00336252,0.00195388,0.00249012,-0.28647482,-0.00
 461016,-0.11995358,0.30346844,-0.00176411,0.00203471,-0.00046208,-0.01
 875405,-0.00944622,-0.00915396,-0.00197273,0.01504218,-0.02412141,0.00
 248356,-0.00909340,-0.12204088,-0.01187501,-0.11210821,0.13066389,0.00
 357549,0.11855959,0.00284946,-0.00884614,-0.00303933,-0.30786359,0.034
 61694,0.13476296,-0.02018090,0.02117559,0.01337014,0.60050157,-0.00313
 645,0.00177603,0.00134826,0.05027566,-0.05682220,-0.02925285,0.0031630
 9,0.00262202,0.00394772,-0.15896971,0.24977489,0.02812215,0.00740254,-
 0.01309719,0.11499387,0.00120766,-0.17372865,-0.01392102,-0.01763704,0
 .00634928,-0.10100344,-0.12488028,0.60959100,0.00041828,-0.00244845,0.
 00050785,-0.02513627,0.01264351,-0.00980764,-0.00275652,0.00412814,0.0
 0141953,-0.18186642,0.09573781,-0.09343566,0.20588154,-0.00092600,-0.0
 0190654,0.00017789,-0.00608995,0.00620411,0.00843115,0.00053769,0.0021
 1764,0.00016122,0.10657997,-0.09433377,0.03649569,-0.10645497,0.090938
 81,-0.00081897,-0.00075738,0.00060815,0.00819841,-0.00204309,0.0119169
 1,0.00296949,0.00037107,-0.00002169,-0.08361676,0.05335362,-0.11747066
 ,0.09302752,-0.06979095,0.11461389,-0.00228132,-0.00135627,0.00223788,
 -0.00410613,-0.00624659,0.03104029,0.00255363,0.00112547,0.00212487,-0
 .08891743,0.00913685,0.08063010,0.00395760,0.00710412,-0.01872246,0.30
 718403,0.00226179,0.01009372,-0.00336559,0.00156263,0.01270917,0.00007
 028,-0.00069364,-0.00850089,-0.00201264,-0.00010512,-0.09479897,0.0689
 6252,-0.00314446,-0.00696474,0.01480773,-0.15955160,0.40618771,0.00178
 616,-0.00460675,0.00071962,0.03974483,-0.01304558,-0.03962680,-0.00151
 800,0.01205628,0.00059641,0.04049727,0.07633116,-0.29852820,0.00590774
 ,0.01895620,-0.00704485,-0.17482873,-0.06191435,0.58346877,-0.00071056
 ,-0.00277373,0.00072483,0.00926665,-0.00007180,0.00311914,0.00064760,0
 .00291279,-0.00097806,-0.00862099,0.00448476,0.01461449,0.00023390,-0.
 00180749,0.00068392,-0.15567985,0.10250541,0.09479188,0.15258013,-0.00
 039050,-0.00102724,0.00102433,0.00450352,0.00006396,0.00213356,0.00060
 349,0.00140869,-0.00033992,-0.01267390,0.00552757,0.01411865,-0.000115
 99,-0.00094133,-0.00037868,0.10697747,-0.12260478,-0.07959308,-0.11675
 179,0.12876510,0.00112262,-0.00014377,-0.00034064,0.00244176,0.0001361
 6,-0.00347978,0.00038092,0.00107403,-0.00004355,0.01766285,-0.01619486
 ,-0.00557481,-0.00005510,0.00015123,0.00079179,0.09538463,-0.07831730,
 -0.13625801,-0.11124878,0.07763894,0.14103953,-0.00034750,0.00254900,-
 0.00097768,-0.00543148,0.00189147,0.00561153,-0.00120593,-0.00425487,0
 .00116203,-0.00297178,-0.00333569,-0.02093994,0.00095462,0.00169544,-0
 .00364828,-0.04055496,0.03293812,0.00838842,-0.00353511,0.01200957,-0.
 00977546,0.47112974,0.00044807,0.00199813,0.00020220,-0.00671526,0.001
 89463,-0.00355591,-0.00030048,-0.00151020,0.00063686,0.01617279,-0.010
 04359,-0.00010699,-0.00157876,0.00279709,0.00191913,0.04523776,-0.1634
 2368,0.03160775,0.01371003,-0.00657890,0.01613095,0.07531439,0.4879208
 4,0.00020209,-0.00072568,0.00024262,-0.00813247,0.00402093,0.00038490,
 0.00087699,-0.00125694,0.00087419,0.00482938,0.02783748,-0.02055949,0.
 00111801,0.00171534,-0.00270984,-0.01926756,0.04831244,-0.07491839,-0.
 00299890,-0.01727835,0.00087642,-0.03489640,0.05903503,0.52319852,-0.0
 0017966,0.00007873,-0.00007411,-0.00088892,0.00054318,0.00044970,-0.00
 034816,-0.00012111,-0.00015615,0.00057807,0.00214821,-0.00151819,-0.00
 011901,0.00020643,-0.00014817,0.00272642,-0.00038619,-0.01646569,0.001
 19259,0.00042333,0.00017152,-0.05101221,-0.00386768,0.05359986,0.05988
 683,-0.00012873,0.00014702,-0.00007568,0.00157711,0.00011799,0.0006628
 2,-0.00016814,-0.00012190,-0.00009560,-0.00193364,-0.00354807,0.000945
 37,0.00010279,-0.00035640,0.00006201,-0.00090933,-0.00676993,0.0277077
 5,-0.00031094,0.00177565,-0.00023882,-0.00417740,-0.03632516,-0.015199
 01,-0.00447763,0.04523802,-0.00000577,-0.00006136,0.00001631,-0.000984
 25,0.00045024,0.00029712,0.00004926,0.00022068,0.00011272,0.00018480,0
 .00168377,-0.00048126,0.00000238,0.00017692,-0.00031284,0.00308279,-0.
 00129893,-0.01752000,0.00103842,0.00032266,0.00230183,0.04278910,-0.01
 472431,-0.28476664,-0.05344784,0.01184176,0.31414658,-0.00003437,-0.00
 015612,-0.00001460,0.00060289,0.00019862,0.00032771,0.00003786,0.00010
 772,-0.00032373,-0.00045724,0.00033941,0.00137262,-0.00010884,-0.00058
 566,-0.00010711,0.00577050,0.01086687,0.00649619,-0.00179065,0.0008959
 9,-0.00103150,-0.08746576,-0.07930623,-0.04019088,0.00240518,0.0044761
 8,0.00165219,0.09925399,0.00008938,0.00055989,0.00005866,-0.00317625,0
 .00098366,0.00090634,0.00014417,-0.00094496,0.00046315,0.00402308,0.00
 063577,-0.00527839,0.00000263,0.00001692,-0.00010740,-0.00250102,-0.02
 592429,-0.00121174,0.00040360,-0.00238809,0.00117554,-0.09193907,-0.22
 319883,-0.08262061,0.00045511,0.00027619,-0.00063158,0.09363664,0.2447
 7998,0.00007157,-0.00017680,-0.00006976,0.00087284,-0.00135164,-0.0002
 8070,0.00003022,0.00038108,-0.00027854,-0.00229874,0.00162599,0.002916
 34,-0.00000900,-0.00041882,-0.00005421,0.00499508,0.01421362,0.0018917
 7,-0.00029274,0.00051740,0.00008743,-0.03871856,-0.08000447,-0.0791578
 3,-0.01356106,-0.02472177,-0.01010041,0.04424962,0.08558820,0.08238037
 ,0.00048767,0.00186397,0.00058566,-0.00542471,-0.00235649,0.00290720,0
 .00062925,-0.00171707,-0.00015243,0.00629962,-0.00039750,-0.00703231,-
 0.00126543,0.00001141,0.00227957,-0.03066107,0.01712599,-0.00836594,0.
 00621366,0.00350379,0.00490147,-0.25731676,-0.05289635,0.03935407,-0.0
 1059249,0.00524443,0.00537228,-0.01589165,-0.00192263,0.00395215,0.558
 15016,0.00032540,0.00256157,0.00115493,0.00709293,-0.01154867,-0.00172
 375,0.00075075,-0.00311249,0.00149788,0.00034422,-0.00116199,0.0163779
 8,0.00089002,0.00206554,0.00257202,0.00015627,-0.00392306,-0.00542805,
 -0.00069198,-0.00362834,-0.00017124,-0.02554098,-0.05828635,-0.0246945
 0,0.00539159,-0.00090348,0.00037742,-0.02918158,0.00369019,0.00319375,
 0.06552883,0.43991320,-0.00052111,-0.00762179,-0.00179057,0.01108448,-
 0.00848726,0.00575536,-0.00075858,0.01184517,-0.00177781,-0.02228631,0
 .00440072,0.01525408,0.00170846,0.00470129,-0.00019796,-0.00649300,0.0
 0463583,-0.01679569,-0.00117132,0.00099585,-0.00067694,0.05557126,-0.0
 1784479,-0.06918587,0.03169683,-0.00124841,-0.00404924,-0.01687120,0.0
 0145360,0.00142967,-0.08263062,0.25352388,0.30177279,0.00007816,0.0003
 9245,0.00004608,0.00028306,-0.00055618,0.00011204,0.00006670,-0.000300
 91,-0.00054713,-0.00017565,0.00041229,-0.00037676,-0.00001016,-0.00002
 193,-0.00005052,0.00005952,-0.00326110,0.00140170,-0.00024439,0.000023
 11,-0.00008758,-0.01266395,-0.01896907,-0.01342872,0.00077404,-0.00007
 984,0.00052745,-0.00444385,0.00082122,0.00122762,-0.12767043,-0.112094
 25,-0.05966963,0.13393407,0.00000128,-0.00057828,-0.00011147,-0.001188
 76,0.00267078,-0.00001312,0.00027217,0.00050769,0.00081479,0.00132888,
 -0.00041342,-0.00095378,-0.00013416,-0.00060087,-0.00031221,0.00553843
 ,0.00411965,0.00112533,0.00015288,0.00031761,0.00000551,0.00096616,-0.
 00756493,-0.00007808,0.00049839,0.00014516,-0.00031393,-0.00169964,0.0
 0066722,0.00043354,-0.11838084,-0.19977659,-0.11414904,0.12317526,0.20
 863433,0.00026902,0.00047410,0.00027472,0.00132365,-0.00222457,0.00032
 953,-0.00022777,-0.00054928,-0.00172080,-0.00165924,0.00050876,0.00121
 767,0.00023062,0.00057500,0.00022283,-0.00586265,-0.00482054,-0.000391
 39,-0.00044704,-0.00034654,-0.00032604,0.00458476,0.01569710,0.0057341
 2,-0.00182027,0.00044368,0.00111573,0.00405063,0.00058655,0.00083654,-
 0.05590852,-0.11602790,-0.09258091,0.06378762,0.11758616,0.08908179,0.
 00004202,0.00069480,0.00000686,-0.00084166,0.00010821,-0.00076689,0.00
 020033,-0.00056486,-0.00042067,0.00082529,0.00014127,-0.00150590,-0.00
 018328,-0.00024905,-0.00004664,-0.00005094,-0.00011869,0.00216417,0.00
 044702,0.00099190,0.00013266,-0.00957893,0.01275080,0.01893454,-0.0044
 2269,0.00078513,-0.00026081,0.00212195,-0.00003686,-0.00051902,-0.1229
 5780,0.08702878,0.09034073,0.01001288,-0.01053006,-0.00832081,0.124385
 81,-0.00008072,-0.00123866,-0.00029586,0.00232587,-0.00231114,0.001332
 12,0.00031990,-0.00009627,0.00074250,-0.00171297,0.00078574,0.00334607
 ,0.00037188,0.00096355,0.00030413,-0.00471157,-0.00019991,-0.00198492,
 -0.00176174,-0.00068992,-0.00124639,0.00188384,0.01232094,0.00093194,-
 0.00089236,0.00032491,0.00195667,0.00040780,0.00084634,0.00071991,0.08
 439247,-0.16588953,-0.13220505,0.01045897,-0.00812837,-0.01190252,-0.0
 9100137,0.16331233,-0.00003093,0.00189463,0.00014000,-0.00328164,0.004
 54313,-0.00170895,-0.00108191,-0.00046449,-0.00144817,0.00259642,-0.00
 070950,-0.00588809,-0.00061471,-0.00133216,-0.00034152,0.00567876,0.00
 072693,0.00440677,0.00216418,0.00118517,0.00160277,-0.00915079,-0.0089
 9255,-0.00001272,0.00127356,-0.00008411,-0.00075990,0.00039004,-0.0003
 8232,0.00039932,0.09473741,-0.13065242,-0.13715690,0.00705783,-0.00403
 370,-0.00379379,-0.09973822,0.13830139,0.14456118\\0.00009200,0.000090
 48,0.00000048,-0.00009342,-0.00008974,-0.00000047,-0.00000047,-0.00000
 023,0.00000066,0.00000210,-0.00000121,0.00000081,0.00000050,0.00000036
 ,0.00000027,0.00000040,0.00000004,-0.00000071,-0.00000009,-0.00000046,
 -0.00000004,0.00000866,-0.00000070,-0.00000369,0.00000139,0.00000041,0
 .00000025,-0.00000030,0.00000008,0.00000034,-0.00001531,0.00000103,0.0
 0000201,0.00000251,-0.00000431,-0.00000328,0.00000205,0.00000425,0.000
 00337\\\@


 THE MOST INCOMPREHENSIBLE THING ABOUT THE WORLD
 IS THAT IT IS COMPREHENSIBLE. -- A. EINSTEIN
 Job cpu time:       0 days  0 hours 28 minutes 25.6 seconds.
 Elapsed time:       0 days  0 hours  2 minutes 30.5 seconds.
 File lengths (MBytes):  RWF=     52 Int=      0 D2E=      0 Chk=     32 Scr=      1
 Normal termination of Gaussian 16 at Fri Jun 10 22:45:29 2022.
