 Entering Gaussian System, Link 0=g16
 Input=ts_initalOptXYZ_aligned_sp.gjf
 Output=ts_initalOptXYZ_aligned_sp.out
 Initial command:
 /software/gaussian/g16-a03/l1.exe "/local_scratch/11177244/Gau-8959.inp" -scrdir="/local_scratch/11177244/"
 Entering Link 1 = /software/gaussian/g16-a03/l1.exe PID=      8961.
  
 Copyright (c) 1988,1990,1992,1993,1995,1998,2003,2009,2016,
            Gaussian, Inc.  All Rights Reserved.
  
 This is part of the Gaussian(R) 16 program.  It is based on
 the Gaussian(R) 09 system (copyright 2009, Gaussian, Inc.),
 the Gaussian(R) 03 system (copyright 2003, Gaussian, Inc.),
 the Gaussian(R) 98 system (copyright 1998, Gaussian, Inc.),
 the Gaussian(R) 94 system (copyright 1995, Gaussian, Inc.),
 the Gaussian 92(TM) system (copyright 1992, Gaussian, Inc.),
 the Gaussian 90(TM) system (copyright 1990, Gaussian, Inc.),
 the Gaussian 88(TM) system (copyright 1988, Gaussian, Inc.),
 the Gaussian 86(TM) system (copyright 1986, Carnegie Mellon
 University), and the Gaussian 82(TM) system (copyright 1983,
 Carnegie Mellon University). Gaussian is a federally registered
 trademark of Gaussian, Inc.
  
 This software contains proprietary and confidential information,
 including trade secrets, belonging to Gaussian, Inc.
  
 This software is provided under written license and may be
 used, copied, transmitted, or stored only in accord with that
 written license.
  
 The following legend is applicable only to US Government
 contracts under FAR:
  
                    RESTRICTED RIGHTS LEGEND
  
 Use, reproduction and disclosure by the US Government is
 subject to restrictions as set forth in subparagraphs (a)
 and (c) of the Commercial Computer Software - Restricted
 Rights clause in FAR 52.227-19.
  
 Gaussian, Inc.
 340 Quinnipiac St., Bldg. 40, Wallingford CT 06492
  
  
 ---------------------------------------------------------------
 Warning -- This program may not be used in any manner that
 competes with the business of Gaussian, Inc. or will provide
 assistance to any competitor of Gaussian, Inc.  The licensee
 of this program is prohibited from giving any competitor of
 Gaussian, Inc. access to this program.  By using this program,
 the user acknowledges that Gaussian, Inc. is engaged in the
 business of creating and licensing software in the field of
 computational chemistry and represents and warrants to the
 licensee that it is not a competitor of Gaussian, Inc. and that
 it will not use this program in any manner prohibited above.
 ---------------------------------------------------------------
  

 Cite this work as:
 Gaussian 16, Revision A.03,
 M. J. Frisch, G. W. Trucks, H. B. Schlegel, G. E. Scuseria, 
 M. A. Robb, J. R. Cheeseman, G. Scalmani, V. Barone, 
 G. A. Petersson, H. Nakatsuji, X. Li, M. Caricato, A. V. Marenich, 
 J. Bloino, B. G. Janesko, R. Gomperts, B. Mennucci, H. P. Hratchian, 
 J. V. Ortiz, A. F. Izmaylov, J. L. Sonnenberg, D. Williams-Young, 
 F. Ding, F. Lipparini, F. Egidi, J. Goings, B. Peng, A. Petrone, 
 T. Henderson, D. Ranasinghe, V. G. Zakrzewski, J. Gao, N. Rega, 
 G. Zheng, W. Liang, M. Hada, M. Ehara, K. Toyota, R. Fukuda, 
 J. Hasegawa, M. Ishida, T. Nakajima, Y. Honda, O. Kitao, H. Nakai, 
 T. Vreven, K. Throssell, J. A. Montgomery, Jr., J. E. Peralta, 
 F. Ogliaro, M. J. Bearpark, J. J. Heyd, E. N. Brothers, K. N. Kudin, 
 V. N. Staroverov, T. A. Keith, R. Kobayashi, J. Normand, 
 K. Raghavachari, A. P. Rendell, J. C. Burant, S. S. Iyengar, 
 J. Tomasi, M. Cossi, J. M. Millam, M. Klene, C. Adamo, R. Cammi, 
 J. W. Ochterski, R. L. Martin, K. Morokuma, O. Farkas, 
 J. B. Foresman, and D. J. Fox, Gaussian, Inc., Wallingford CT, 2016.
 
 ******************************************
 Gaussian 16:  ES64L-G16RevA.03 25-Dec-2016
                12-Jun-2022 
 ******************************************
 %nprocshared=12
 Will use up to   12 processors via shared memory.
 %chk=checkpoint.chk
 %mem=12GB
 --------------------------
 # sp B3LYP/Def2TZVP NoSymm
 --------------------------
 1/38=1,172=1/1;
 2/12=2,15=1,17=6,18=5,40=1/2;
 3/5=44,7=101,11=2,25=1,30=1,74=-5/1,2,3;
 4//1;
 5/5=2,38=5/2;
 6/7=2,8=2,9=2,10=2,28=1/1;
 99/5=1,9=1/99;
 ---------------------------------
 ts_initalOptXYZ_aligned_AlignedSp
 ---------------------------------
 Symbolic Z-matrix:
 Charge =  0 Multiplicity = 1
 6                    -1.08026  -0.25622   0.69946 
 6                    -0.03119   1.60839   1.15103 
 6                     1.26032   1.30726  -0.69584 
 6                     1.26032   1.30726   0.69584 
 1                     2.08376   0.9971   -1.32235 
 1                     2.08376   0.9971    1.32235 
 6                    -0.75164   2.26098   0. 
 1                    -1.83546   2.17468   0. 
 1                    -0.49885   3.33013   0. 
 1                    -0.28159   1.7782   -2.18839 
 1                    -0.28159   1.7782    2.18839 
 8                     0.15445  -1.68308  -2.23096 
 8                     0.15445  -1.68308   2.23096 
 6                    -0.11451  -1.28138  -1.14021 
 6                    -0.11451  -1.28138   1.14021 
 1                    -1.91303  -0.00868  -1.33782 
 6                    -0.03119   1.60839  -1.15103 
 6                    -1.08026  -0.25622  -0.69946 
 1                    -1.91303  -0.00868   1.33782 
 8                     0.52278  -1.7764    0. 
 
                          Input orientation:                          
 ---------------------------------------------------------------------
 Center     Atomic      Atomic             Coordinates (Angstroms)
 Number     Number       Type             X           Y           Z
 ---------------------------------------------------------------------
      1          6           0       -1.080256   -0.256222    0.699459
      2          6           0       -0.031193    1.608388    1.151031
      3          6           0        1.260323    1.307257   -0.695841
      4          6           0        1.260323    1.307257    0.695841
      5          1           0        2.083760    0.997095   -1.322348
      6          1           0        2.083760    0.997095    1.322348
      7          6           0       -0.751641    2.260981    0.000000
      8          1           0       -1.835463    2.174682    0.000000
      9          1           0       -0.498847    3.330134    0.000000
     10          1           0       -0.281589    1.778199   -2.188392
     11          1           0       -0.281589    1.778199    2.188392
     12          8           0        0.154454   -1.683084   -2.230963
     13          8           0        0.154454   -1.683084    2.230963
     14          6           0       -0.114512   -1.281375   -1.140209
     15          6           0       -0.114512   -1.281375    1.140209
     16          1           0       -1.913033   -0.008679   -1.337815
     17          6           0       -0.031193    1.608388   -1.151031
     18          6           0       -1.080256   -0.256222   -0.699459
     19          1           0       -1.913033   -0.008679    1.337815
     20          8           0        0.522783   -1.776397    0.000000
 ---------------------------------------------------------------------
                    Distance matrix (angstroms):
                    1          2          3          4          5
     1  C    0.000000
     2  C    2.186600   0.000000
     3  C    3.141598   2.273682   0.000000
     4  C    2.814745   1.402102   1.391682   0.000000
     5  H    3.958472   3.311240   1.080167   2.201667   0.000000
     6  H    3.459739   2.208179   2.201667   1.080167   2.644696
     7  C    2.633162   1.506584   2.332763   2.332763   3.374242
     8  H    2.639863   2.213809   3.289455   3.289455   4.300654
     9  H    3.699896   2.123201   2.769640   2.769640   3.723108
    10  H    3.621660   3.353100   2.197041   3.304252   2.637239
    11  H    2.644553   1.080579   3.304252   2.197041   4.304683
    12  O    3.485372   4.722937   3.538599   4.327963   3.425078
    13  O    2.430216   3.469079   4.327963   3.538599   4.850938
    14  C    2.316890   3.688828   2.964566   3.458651   3.171277
    15  C    1.475758   2.890984   3.458651   2.964566   4.010986
    16  H    2.214787   3.514339   3.494854   3.992196   4.121429
    17  C    2.828713   2.302062   1.402102   2.273682   2.208179
    18  C    1.398918   2.828713   2.814745   3.141598   3.459739
    19  H    1.078097   2.488195   3.992196   3.494854   4.905344
    20  O    2.317306   3.617808   3.246087   3.246087   3.446377
                    6          7          8          9         10
     6  H    0.000000
     7  C    3.374242   0.000000
     8  H    4.300654   1.087252   0.000000
     9  H    3.723108   1.098632   1.766808   0.000000
    10  H    4.304683   2.289779   2.713076   2.691610   0.000000
    11  H    2.637239   2.289779   2.713076   2.691610   4.376784
    12  O    4.850938   4.621023   4.880504   5.525971   3.488900
    13  O    3.425078   4.621023   4.880504   5.525971   5.630392
    14  C    4.010986   3.775486   4.025677   4.765900   3.238456
    15  C    3.171277   3.775486   4.025677   4.765900   4.524212
    16  H    4.905344   2.879225   2.561802   3.864886   2.564766
    17  C    3.311240   1.506584   2.213809   2.123201   1.080579
    18  C    3.958472   2.633162   2.639863   3.699896   2.644553
    19  H    4.121429   2.879225   2.561802   3.864886   4.276526
    20  O    3.446377   4.233743   4.601342   5.207724   4.251027
                   11         12         13         14         15
    11  H    0.000000
    12  O    5.630392   0.000000
    13  O    3.488900   4.461926   0.000000
    14  C    4.524212   1.193087   3.405659   0.000000
    15  C    3.238456   3.405659   1.193087   2.280418   0.000000
    16  H    4.276526   2.806394   4.451327   2.212121   3.315876
    17  C    3.353100   3.469079   4.722937   2.890984   3.688828
    18  C    3.621660   2.430216   3.485372   1.475758   2.316890
    19  H    2.564766   4.451327   2.806394   3.315876   2.212121
    20  O    4.251027   2.263088   2.263088   1.396878   1.396878
                   16         17         18         19         20
    16  H    0.000000
    17  C    2.488195   0.000000
    18  C    1.078097   2.186600   0.000000
    19  H    2.675630   3.514339   2.214787   0.000000
    20  O    3.293596   3.617808   2.317306   3.293596   0.000000
 Symmetry turned off by external request.
 Stoichiometry    C9H8O3
 Framework group  CS[SG(CH2O),X(C8H6O2)]
 Deg. of freedom    29
 Full point group                 CS      NOp   2
 Rotational constants (GHZ):           1.4014272           1.0789735           0.7990138
 Standard basis: def2TZVP (5D, 7F)
   420 basis functions,   676 primitive gaussians,   480 cartesian basis functions
    43 alpha electrons       43 beta electrons
       nuclear repulsion energy       708.6752207395 Hartrees.
 NAtoms=   20 NActive=   20 NUniq=   20 SFac= 1.00D+00 NAtFMM=   60 NAOKFM=F Big=F
 Integral buffers will be    131072 words long.
 Raffenetti 2 integral format.
 Two-electron integral symmetry is turned off.
 One-electron integrals computed using PRISM.
   1 Symmetry operations used in ECPInt.
 ECPInt:  NShTT=   13530 NPrTT=   41904 LenC2=   13163 LenP2D=   31870.
 LDataN:  DoStor=T MaxTD1= 6 Len=  172
 NBasis=   420 RedAO= T EigKep=  2.05D-05  NBF=   420
 NBsUse=   420 1.00D-06 EigRej= -1.00D+00 NBFU=   420
 ExpMin= 9.52D-02 ExpMax= 2.70D+04 ExpMxC= 9.22D+02 IAcc=3 IRadAn=         5 AccDes= 0.00D+00
 Harris functional with IExCor=  402 and IRadAn=       5 diagonalized for initial guess.
 HarFok:  IExCor=  402 AccDes= 0.00D+00 IRadAn=         5 IDoV= 1 UseB2=F ITyADJ=14
 ICtDFT=  3500011 ScaDFX=  1.000000  1.000000  1.000000  1.000000
 FoFCou: FMM=F IPFlag=           0 FMFlag=      100000 FMFlg1=           0
         NFxFlg=           0 DoJE=T BraDBF=F KetDBF=T FulRan=T
         wScrn=  0.000000 ICntrl=       500 IOpCl=  0 I1Cent=   200000004 NGrid=           0
         NMat0=    1 NMatS0=      1 NMatT0=    0 NMatD0=    1 NMtDS0=    0 NMtDT0=    0
 Symmetry not used in FoFCou.
 Requested convergence on RMS density matrix=1.00D-08 within 128 cycles.
 Requested convergence on MAX density matrix=1.00D-06.
 Requested convergence on             energy=1.00D-06.
 No special actions if energy rises.
 Integral accuracy reduced to 1.0D-05 until final iterations.
 Initial convergence to 1.0D-05 achieved.  Increase integral accuracy.
 SCF Done:  E(RB3LYP) =  -573.600468276     A.U. after   15 cycles
            NFock= 15  Conv=0.24D-08     -V/T= 2.0047

 **********************************************************************

            Population analysis using the SCF density.

 **********************************************************************

 Alpha  occ. eigenvalues --  -19.18801 -19.12928 -19.12928 -10.31502 -10.31500
 Alpha  occ. eigenvalues --  -10.22617 -10.22616 -10.21748 -10.21694 -10.21152
 Alpha  occ. eigenvalues --  -10.20393 -10.20336  -1.13362  -1.07165  -1.03214
 Alpha  occ. eigenvalues --   -0.90914  -0.82686  -0.74750  -0.74476  -0.69163
 Alpha  occ. eigenvalues --   -0.62737  -0.59650  -0.58484  -0.56377  -0.55445
 Alpha  occ. eigenvalues --   -0.51203  -0.49817  -0.47073  -0.46890  -0.45160
 Alpha  occ. eigenvalues --   -0.44035  -0.42289  -0.41533  -0.41375  -0.41202
 Alpha  occ. eigenvalues --   -0.40180  -0.39361  -0.35529  -0.33232  -0.31152
 Alpha  occ. eigenvalues --   -0.28956  -0.27953  -0.27348
 Alpha virt. eigenvalues --   -0.07684  -0.06095  -0.00773   0.01750   0.03875
 Alpha virt. eigenvalues --    0.05268   0.05514   0.06178   0.07667   0.07736
 Alpha virt. eigenvalues --    0.08705   0.08963   0.11530   0.13033   0.13083
 Alpha virt. eigenvalues --    0.13434   0.15358   0.16739   0.17405   0.18214
 Alpha virt. eigenvalues --    0.18351   0.19082   0.19363   0.20252   0.22652
 Alpha virt. eigenvalues --    0.23516   0.24370   0.25590   0.26433   0.27724
 Alpha virt. eigenvalues --    0.27772   0.30749   0.30838   0.31907   0.32745
 Alpha virt. eigenvalues --    0.33330   0.34307   0.34546   0.35966   0.36105
 Alpha virt. eigenvalues --    0.37389   0.38451   0.38791   0.38805   0.39630
 Alpha virt. eigenvalues --    0.40439   0.40905   0.41979   0.42483   0.43347
 Alpha virt. eigenvalues --    0.43796   0.43922   0.45464   0.46805   0.47052
 Alpha virt. eigenvalues --    0.48751   0.50212   0.50930   0.51612   0.51856
 Alpha virt. eigenvalues --    0.53442   0.54388   0.55110   0.55687   0.56763
 Alpha virt. eigenvalues --    0.57871   0.59011   0.61030   0.61322   0.64627
 Alpha virt. eigenvalues --    0.64937   0.67406   0.68124   0.68793   0.71589
 Alpha virt. eigenvalues --    0.73155   0.74806   0.75099   0.77565   0.78194
 Alpha virt. eigenvalues --    0.80733   0.81701   0.81779   0.85805   0.87160
 Alpha virt. eigenvalues --    0.88863   0.89404   0.90331   0.91551   0.91592
 Alpha virt. eigenvalues --    0.91836   0.95275   0.95842   0.98120   0.98345
 Alpha virt. eigenvalues --    0.99243   1.01368   1.01372   1.03385   1.05551
 Alpha virt. eigenvalues --    1.07432   1.09544   1.11170   1.11172   1.12688
 Alpha virt. eigenvalues --    1.13022   1.13828   1.14952   1.15786   1.16550
 Alpha virt. eigenvalues --    1.19858   1.20131   1.24899   1.25272   1.25942
 Alpha virt. eigenvalues --    1.26085   1.28463   1.29386   1.33375   1.33787
 Alpha virt. eigenvalues --    1.34968   1.35142   1.37630   1.38436   1.39352
 Alpha virt. eigenvalues --    1.40614   1.40869   1.43160   1.43661   1.44833
 Alpha virt. eigenvalues --    1.51144   1.51837   1.52709   1.54173   1.55541
 Alpha virt. eigenvalues --    1.56986   1.58974   1.60304   1.61496   1.63248
 Alpha virt. eigenvalues --    1.65957   1.67378   1.69036   1.70485   1.74773
 Alpha virt. eigenvalues --    1.76128   1.78480   1.79054   1.81620   1.81893
 Alpha virt. eigenvalues --    1.86760   1.88448   1.89747   1.90659   1.92043
 Alpha virt. eigenvalues --    1.93919   1.95032   1.95261   1.97027   1.99120
 Alpha virt. eigenvalues --    1.99635   2.00063   2.03574   2.04855   2.06946
 Alpha virt. eigenvalues --    2.07935   2.08904   2.12411   2.15346   2.15426
 Alpha virt. eigenvalues --    2.18558   2.20174   2.20368   2.21199   2.21234
 Alpha virt. eigenvalues --    2.25148   2.26658   2.28978   2.30054   2.30314
 Alpha virt. eigenvalues --    2.31930   2.33939   2.37659   2.38821   2.39946
 Alpha virt. eigenvalues --    2.41215   2.41606   2.46362   2.46925   2.50108
 Alpha virt. eigenvalues --    2.50714   2.51054   2.52273   2.57807   2.57949
 Alpha virt. eigenvalues --    2.60394   2.60601   2.61188   2.63141   2.63777
 Alpha virt. eigenvalues --    2.65147   2.65605   2.65696   2.67171   2.69128
 Alpha virt. eigenvalues --    2.70917   2.71495   2.73437   2.74994   2.78330
 Alpha virt. eigenvalues --    2.79982   2.80416   2.82559   2.82854   2.82968
 Alpha virt. eigenvalues --    2.83640   2.85119   2.85251   2.89245   2.90204
 Alpha virt. eigenvalues --    2.91814   2.95172   2.96983   2.97732   2.98554
 Alpha virt. eigenvalues --    2.98560   3.02243   3.02482   3.02874   3.04143
 Alpha virt. eigenvalues --    3.05429   3.07467   3.08992   3.10147   3.12127
 Alpha virt. eigenvalues --    3.12709   3.13131   3.14778   3.15531   3.18101
 Alpha virt. eigenvalues --    3.18440   3.19545   3.20707   3.21480   3.23220
 Alpha virt. eigenvalues --    3.23682   3.24101   3.27118   3.28305   3.29254
 Alpha virt. eigenvalues --    3.29647   3.31200   3.32900   3.33209   3.34314
 Alpha virt. eigenvalues --    3.34682   3.36193   3.37069   3.37442   3.38128
 Alpha virt. eigenvalues --    3.39503   3.40597   3.45331   3.46023   3.46502
 Alpha virt. eigenvalues --    3.49491   3.52130   3.53994   3.54651   3.54976
 Alpha virt. eigenvalues --    3.56856   3.58240   3.59514   3.63651   3.65636
 Alpha virt. eigenvalues --    3.66701   3.69799   3.76924   3.77882   3.79789
 Alpha virt. eigenvalues --    3.82173   3.86344   3.86550   3.88989   3.92600
 Alpha virt. eigenvalues --    3.95065   3.95133   3.99228   4.01166   4.03307
 Alpha virt. eigenvalues --    4.06067   4.08361   4.08561   4.13526   4.13751
 Alpha virt. eigenvalues --    4.15562   4.17149   4.19925   4.22166   4.22316
 Alpha virt. eigenvalues --    4.23273   4.29177   4.29679   4.31910   4.34395
 Alpha virt. eigenvalues --    4.37043   4.38970   4.39391   4.43095   4.45669
 Alpha virt. eigenvalues --    4.53026   4.55022   4.59342   4.59938   4.65583
 Alpha virt. eigenvalues --    4.66004   4.67517   4.73394   4.75421   4.81183
 Alpha virt. eigenvalues --    4.86140   4.89499   4.89577   4.95590   4.97007
 Alpha virt. eigenvalues --    5.00346   5.04023   5.13563   5.15185   5.17381
 Alpha virt. eigenvalues --    5.19663   5.21218   5.23667   5.24567   5.40623
 Alpha virt. eigenvalues --    5.46320   5.59418   5.63075   5.63114   5.74392
 Alpha virt. eigenvalues --    5.74976   5.91761   6.14880   6.17416   6.19991
 Alpha virt. eigenvalues --    6.25249   6.35074   6.35688   6.36200   6.46582
 Alpha virt. eigenvalues --    6.49417   6.54072   6.67281   6.67936   6.78545
 Alpha virt. eigenvalues --    6.79498   6.81556   6.82952   6.94722   7.04280
 Alpha virt. eigenvalues --    7.05156   7.12971   7.14741   7.25831   7.43097
 Alpha virt. eigenvalues --   22.30411  22.45015  22.50928  22.56031  22.61270
 Alpha virt. eigenvalues --   22.77377  22.89925  23.02607  23.54519  43.89585
 Alpha virt. eigenvalues --   43.92403  44.12596
          Condensed to atoms (all electrons):
               1          2          3          4          5          6
     1  C    6.386297  -0.061680  -0.082597   0.056197  -0.002176  -0.000397
     2  C   -0.061680   5.177436  -0.011294   0.397224   0.005889  -0.031874
     3  C   -0.082597  -0.011294   5.112294   0.371367   0.415438  -0.032879
     4  C    0.056197   0.397224   0.371367   5.112294  -0.032879   0.415438
     5  H   -0.002176   0.005889   0.415438  -0.032879   0.499378  -0.002007
     6  H   -0.000397  -0.031874  -0.032879   0.415438  -0.002007   0.499378
     7  C   -0.053626   0.311263  -0.045167  -0.045167   0.007110   0.007110
     8  H   -0.005767  -0.036417   0.005576   0.005576  -0.000125  -0.000125
     9  H    0.007926  -0.017867  -0.002440  -0.002440  -0.000494  -0.000494
    10  H    0.002237   0.007794  -0.042993   0.010244  -0.003410  -0.000110
    11  H   -0.017541   0.425821   0.010244  -0.042993  -0.000110  -0.003410
    12  O    0.010628  -0.000566  -0.006934   0.001438   0.001101   0.000024
    13  O   -0.117487   0.001844   0.001438  -0.006934   0.000024   0.001101
    14  C    0.103875  -0.012119  -0.020363   0.007979   0.003082  -0.000044
    15  C    0.025903   0.026849   0.007979  -0.020363  -0.000044   0.003082
    16  H   -0.021737   0.000757  -0.003959   0.004577  -0.000154   0.000034
    17  C    0.102599  -0.161791   0.397224  -0.011294  -0.031874   0.005889
    18  C   -0.438729   0.102599   0.056197  -0.082597  -0.000397  -0.002176
    19  H    0.391626  -0.021258   0.004577  -0.003959   0.000034  -0.000154
    20  O   -0.124002  -0.003474   0.007925   0.007925  -0.000754  -0.000754
               7          8          9         10         11         12
     1  C   -0.053626  -0.005767   0.007926   0.002237  -0.017541   0.010628
     2  C    0.311263  -0.036417  -0.017867   0.007794   0.425821  -0.000566
     3  C   -0.045167   0.005576  -0.002440  -0.042993   0.010244  -0.006934
     4  C   -0.045167   0.005576  -0.002440   0.010244  -0.042993   0.001438
     5  H    0.007110  -0.000125  -0.000494  -0.003410  -0.000110   0.001101
     6  H    0.007110  -0.000125  -0.000494  -0.000110  -0.003410   0.000024
     7  C    4.962159   0.425266   0.360531  -0.040699  -0.040699   0.000967
     8  H    0.425266   0.559892  -0.026466  -0.001713  -0.001713  -0.000042
     9  H    0.360531  -0.026466   0.566834  -0.000006  -0.000006  -0.000012
    10  H   -0.040699  -0.001713  -0.000006   0.516870  -0.000137   0.002445
    11  H   -0.040699  -0.001713  -0.000006  -0.000137   0.516870   0.000003
    12  O    0.000967  -0.000042  -0.000012   0.002445   0.000003   7.700588
    13  O    0.000967  -0.000042  -0.000012   0.000003   0.002445  -0.000180
    14  C    0.008614   0.000940  -0.000583   0.000205  -0.000047   0.742282
    15  C    0.008614   0.000940  -0.000583  -0.000047   0.000205   0.002009
    16  H   -0.002954   0.000140   0.000198   0.000387  -0.000329   0.001148
    17  C    0.311263  -0.036417  -0.017867   0.425821   0.007794   0.001844
    18  C   -0.053626  -0.005767   0.007926  -0.017541   0.002237  -0.117487
    19  H   -0.002954   0.000140   0.000198  -0.000329   0.000387  -0.000089
    20  O   -0.000184  -0.000107   0.000011   0.000328   0.000328  -0.084073
              13         14         15         16         17         18
     1  C   -0.117487   0.103875   0.025903  -0.021737   0.102599  -0.438729
     2  C    0.001844  -0.012119   0.026849   0.000757  -0.161791   0.102599
     3  C    0.001438  -0.020363   0.007979  -0.003959   0.397224   0.056197
     4  C   -0.006934   0.007979  -0.020363   0.004577  -0.011294  -0.082597
     5  H    0.000024   0.003082  -0.000044  -0.000154  -0.031874  -0.000397
     6  H    0.001101  -0.000044   0.003082   0.000034   0.005889  -0.002176
     7  C    0.000967   0.008614   0.008614  -0.002954   0.311263  -0.053626
     8  H   -0.000042   0.000940   0.000940   0.000140  -0.036417  -0.005767
     9  H   -0.000012  -0.000583  -0.000583   0.000198  -0.017867   0.007926
    10  H    0.000003   0.000205  -0.000047   0.000387   0.425821  -0.017541
    11  H    0.002445  -0.000047   0.000205  -0.000329   0.007794   0.002237
    12  O   -0.000180   0.742282   0.002009   0.001148   0.001844  -0.117487
    13  O    7.700588   0.002009   0.742282  -0.000089  -0.000566   0.010628
    14  C    0.002009   4.581003  -0.040807  -0.014220   0.026849   0.025903
    15  C    0.742282  -0.040807   4.581003   0.000932  -0.012119   0.103875
    16  H   -0.000089  -0.014220   0.000932   0.518175  -0.021258   0.391626
    17  C   -0.000566   0.026849  -0.012119  -0.021258   5.177436  -0.061680
    18  C    0.010628   0.025903   0.103875   0.391626  -0.061680   6.386297
    19  H    0.001148   0.000932  -0.014220  -0.002971   0.000757  -0.021737
    20  O   -0.084073   0.313042   0.313042   0.003634  -0.003474  -0.124002
              19         20
     1  C    0.391626  -0.124002
     2  C   -0.021258  -0.003474
     3  C    0.004577   0.007925
     4  C   -0.003959   0.007925
     5  H    0.000034  -0.000754
     6  H   -0.000154  -0.000754
     7  C   -0.002954  -0.000184
     8  H    0.000140  -0.000107
     9  H    0.000198   0.000011
    10  H   -0.000329   0.000328
    11  H    0.000387   0.000328
    12  O   -0.000089  -0.084073
    13  O    0.001148  -0.084073
    14  C    0.000932   0.313042
    15  C   -0.014220   0.313042
    16  H   -0.002971   0.003634
    17  C    0.000757  -0.003474
    18  C   -0.021737  -0.124002
    19  H    0.518175   0.003634
    20  O    0.003634   7.984388
 Mulliken charges:
               1
     1  C   -0.161549
     2  C   -0.099134
     3  C   -0.141632
     4  C   -0.141632
     5  H    0.142368
     6  H    0.142368
     7  C   -0.118795
     8  H    0.116229
     9  H    0.125646
    10  H    0.140650
    11  H    0.140650
    12  O   -0.255094
    13  O   -0.255094
    14  C    0.271469
    15  C    0.271469
    16  H    0.146061
    17  C   -0.099134
    18  C   -0.161549
    19  H    0.146061
    20  O   -0.209361
 Sum of Mulliken charges =  -0.00000
 Mulliken charges with hydrogens summed into heavy atoms:
               1
     1  C   -0.015488
     2  C    0.041516
     3  C    0.000736
     4  C    0.000736
     7  C    0.123080
    12  O   -0.255094
    13  O   -0.255094
    14  C    0.271469
    15  C    0.271469
    17  C    0.041516
    18  C   -0.015488
    20  O   -0.209361
 Electronic spatial extent (au):  <R**2>=           1573.9977
 Charge=             -0.0000 electrons
 Dipole moment (field-independent basis, Debye):
    X=             -2.1473    Y=              5.7273    Z=             -0.0000  Tot=              6.1166
 Quadrupole moment (field-independent basis, Debye-Ang):
   XX=            -63.4595   YY=            -74.1300   ZZ=            -78.1167
   XY=              1.3935   XZ=              0.0000   YZ=             -0.0000
 Traceless Quadrupole moment (field-independent basis, Debye-Ang):
   XX=              8.4426   YY=             -2.2279   ZZ=             -6.2147
   XY=              1.3935   XZ=              0.0000   YZ=             -0.0000
 Octapole moment (field-independent basis, Debye-Ang**2):
  XXX=              2.3627  YYY=              3.4403  ZZZ=             -0.0000  XYY=            -11.4501
  XXY=             -2.5002  XXZ=              0.0000  XZZ=             -3.5043  YZZ=             27.1320
  YYZ=              0.0000  XYZ=             -0.0000
 Hexadecapole moment (field-independent basis, Debye-Ang**3):
 XXXX=           -326.1856 YYYY=          -1006.7677 ZZZZ=           -767.9327 XXXY=             -9.4806
 XXXZ=             -0.0000 YYYX=            -10.8269 YYYZ=             -0.0000 ZZZX=              0.0000
 ZZZY=             -0.0000 XXYY=           -232.1311 XXZZ=           -159.8916 YYZZ=           -322.4471
 XXYZ=             -0.0000 YYXZ=              0.0000 ZZXY=              2.2464
 N-N= 7.086752207395D+02 E-N=-2.756674391521D+03  KE= 5.708940768651D+02
 1\1\GINC-BHC0172\SP\RB3LYP\def2TZVP\C9H8O3\DHANAWAY\12-Jun-2022\0\\# s
 p B3LYP/Def2TZVP NoSymm\\ts_initalOptXYZ_aligned_AlignedSp\\0,1\C,0,-1
 .080256,-0.256222,0.699459\C,0,-0.031193,1.608388,1.151031\C,0,1.26032
 3,1.307257,-0.695841\C,0,1.260323,1.307257,0.695841\H,0,2.08376,0.9970
 95,-1.322348\H,0,2.08376,0.997095,1.322348\C,0,-0.751641,2.260981,0.\H
 ,0,-1.835463,2.174682,0.\H,0,-0.498847,3.330134,0.\H,0,-0.281589,1.778
 199,-2.188392\H,0,-0.281589,1.778199,2.188392\O,0,0.154454,-1.683084,-
 2.230963\O,0,0.154454,-1.683084,2.230963\C,0,-0.114512,-1.281375,-1.14
 0209\C,0,-0.114512,-1.281375,1.140209\H,0,-1.913033,-0.008679,-1.33781
 5\C,0,-0.031193,1.608388,-1.151031\C,0,-1.080256,-0.256222,-0.699459\H
 ,0,-1.913033,-0.008679,1.337815\O,0,0.522783,-1.776397,0.\\Version=ES6
 4L-G16RevA.03\HF=-573.6004683\RMSD=2.368e-09\Dipole=-0.8448228,2.25329
 62,0.\Quadrupole=6.276863,-1.6564107,-4.6204523,1.0360006,0.,0.\PG=CS 
 [SG(C1H2O1),X(C8H6O2)]\\@


 IF YOU GIVE A BOY AND A PIG EVERYTHING THEY WANT,
 YOU'LL GET A BAD BOY AND A GOOD PIG.
 Job cpu time:       0 days  0 hours 30 minutes 32.7 seconds.
 Elapsed time:       0 days  0 hours  2 minutes 33.3 seconds.
 File lengths (MBytes):  RWF=     98 Int=      0 D2E=      0 Chk=     32 Scr=      1
 Normal termination of Gaussian 16 at Sun Jun 12 01:14:23 2022.
