 Entering Gaussian System, Link 0=g16
 Input=int_zmat_field_N50.gjf
 Output=int_zmat_field_N50.out
 Initial command:
 /software/gaussian/g16-a03/l1.exe "/local_scratch/11172232/Gau-18882.inp" -scrdir="/local_scratch/11172232/"
 Entering Link 1 = /software/gaussian/g16-a03/l1.exe PID=     18883.
  
 Copyright (c) 1988,1990,1992,1993,1995,1998,2003,2009,2016,
            Gaussian, Inc.  All Rights Reserved.
  
 This is part of the Gaussian(R) 16 program.  It is based on
 the Gaussian(R) 09 system (copyright 2009, Gaussian, Inc.),
 the Gaussian(R) 03 system (copyright 2003, Gaussian, Inc.),
 the Gaussian(R) 98 system (copyright 1998, Gaussian, Inc.),
 the Gaussian(R) 94 system (copyright 1995, Gaussian, Inc.),
 the Gaussian 92(TM) system (copyright 1992, Gaussian, Inc.),
 the Gaussian 90(TM) system (copyright 1990, Gaussian, Inc.),
 the Gaussian 88(TM) system (copyright 1988, Gaussian, Inc.),
 the Gaussian 86(TM) system (copyright 1986, Carnegie Mellon
 University), and the Gaussian 82(TM) system (copyright 1983,
 Carnegie Mellon University). Gaussian is a federally registered
 trademark of Gaussian, Inc.
  
 This software contains proprietary and confidential information,
 including trade secrets, belonging to Gaussian, Inc.
  
 This software is provided under written license and may be
 used, copied, transmitted, or stored only in accord with that
 written license.
  
 The following legend is applicable only to US Government
 contracts under FAR:
  
                    RESTRICTED RIGHTS LEGEND
  
 Use, reproduction and disclosure by the US Government is
 subject to restrictions as set forth in subparagraphs (a)
 and (c) of the Commercial Computer Software - Restricted
 Rights clause in FAR 52.227-19.
  
 Gaussian, Inc.
 340 Quinnipiac St., Bldg. 40, Wallingford CT 06492
  
  
 ---------------------------------------------------------------
 Warning -- This program may not be used in any manner that
 competes with the business of Gaussian, Inc. or will provide
 assistance to any competitor of Gaussian, Inc.  The licensee
 of this program is prohibited from giving any competitor of
 Gaussian, Inc. access to this program.  By using this program,
 the user acknowledges that Gaussian, Inc. is engaged in the
 business of creating and licensing software in the field of
 computational chemistry and represents and warrants to the
 licensee that it is not a competitor of Gaussian, Inc. and that
 it will not use this program in any manner prohibited above.
 ---------------------------------------------------------------
  

 Cite this work as:
 Gaussian 16, Revision A.03,
 M. J. Frisch, G. W. Trucks, H. B. Schlegel, G. E. Scuseria, 
 M. A. Robb, J. R. Cheeseman, G. Scalmani, V. Barone, 
 G. A. Petersson, H. Nakatsuji, X. Li, M. Caricato, A. V. Marenich, 
 J. Bloino, B. G. Janesko, R. Gomperts, B. Mennucci, H. P. Hratchian, 
 J. V. Ortiz, A. F. Izmaylov, J. L. Sonnenberg, D. Williams-Young, 
 F. Ding, F. Lipparini, F. Egidi, J. Goings, B. Peng, A. Petrone, 
 T. Henderson, D. Ranasinghe, V. G. Zakrzewski, J. Gao, N. Rega, 
 G. Zheng, W. Liang, M. Hada, M. Ehara, K. Toyota, R. Fukuda, 
 J. Hasegawa, M. Ishida, T. Nakajima, Y. Honda, O. Kitao, H. Nakai, 
 T. Vreven, K. Throssell, J. A. Montgomery, Jr., J. E. Peralta, 
 F. Ogliaro, M. J. Bearpark, J. J. Heyd, E. N. Brothers, K. N. Kudin, 
 V. N. Staroverov, T. A. Keith, R. Kobayashi, J. Normand, 
 K. Raghavachari, A. P. Rendell, J. C. Burant, S. S. Iyengar, 
 J. Tomasi, M. Cossi, J. M. Millam, M. Klene, C. Adamo, R. Cammi, 
 J. W. Ochterski, R. L. Martin, K. Morokuma, O. Farkas, 
 J. B. Foresman, and D. J. Fox, Gaussian, Inc., Wallingford CT, 2016.
 
 ******************************************
 Gaussian 16:  ES64L-G16RevA.03 25-Dec-2016
                10-Jun-2022 
 ******************************************
 %nprocshared=12
 Will use up to   12 processors via shared memory.
 %chk=checkpoint.chk
 %mem=12GB
 ----------------------------------------------------------------------
 # Opt=(Z-matrix, MaxStep=10) B3LYP/Def2TZVP geom=allcheckpoint guess=r
 ead Field=read NoSymm freq=noraman pop=none
 ----------------------------------------------------------------------
 1/8=10,10=7,18=40,26=3,29=7,38=1/1,3;
 2/12=2,15=1,29=3,40=1/2;
 3/5=44,7=101,11=2,14=-6,25=1,30=1,71=1,74=-5,116=-2/1,2,3;
 4/5=1/1;
 5/5=2,38=6/2;
 7/29=1,30=1/1,2,3,16;
 1/8=10,10=7,18=40,26=3/3(2);
 2/15=1,29=3/2;
 99//99;
 2/15=1,29=3/2;
 3/5=44,7=101,11=2,14=-2,25=1,30=1,71=1,74=-5/1,2,3;
 4/5=5,16=3,69=1/1;
 5/5=2,38=5/2;
 7/30=1/1,2,3,16;
 1/8=10,18=40,26=3/3(-5);
 2/15=1,29=3/2;
 99/9=1/99;
 Structure from the checkpoint file:  "checkpoint.chk"
 ------------------
 int_zmat_initalOpt
 ------------------
 Charge =  0 Multiplicity = 1
 Z-Matrix found in chk file.
 C
 C,1,R2
 C,1,R3,2,A3
 C,1,R4,2,A4,3,D4,0
 H,2,R5,1,A5,3,D5,0
 C,2,R6,1,A6,5,D6,0
 O,3,R7,1,A7,2,D7,0
 H,3,R8,1,A8,7,D8,0
 H,3,R9,1,A9,7,D9,0
 C,4,R10,1,A10,2,D10,0
 C,4,R11,1,A11,10,D11,0
 H,4,R12,1,A12,10,D12,0
 H,6,R13,2,A13,1,D13,0
 H,6,R14,2,A14,13,D14,0
 H,6,R15,2,A15,13,D15,0
 H,10,R16,4,A16,1,D16,0
 H,10,R17,4,A17,16,D17,0
 C,11,R18,4,A18,1,D18,0
 H,11,R19,4,A19,18,D19,0
 H,18,R20,11,A20,4,D20,0
 H,18,R21,11,A21,20,D21,0
      Variables:
 R2=1.32780953
 R3=1.51561458
 R4=1.52501643
 R5=1.08556194
 R6=1.49869788
 R7=1.42846198
 R8=1.09279584
 R9=1.0986166
 R10=1.53089592
 R11=1.49830358
 R12=1.09978892
 R13=1.0902873
 R14=1.09412235
 R15=1.09397905
 R16=1.08973781
 R17=1.09890617
 R18=1.32766405
 R19=1.08590766
 R20=1.08326594
 R21=1.08247153
 A3=126.40961641
 A4=127.48748414
 A5=118.73010233
 A6=125.83413464
 A7=106.41542664
 A8=113.32717256
 A9=111.15556821
 A10=100.9589767
 A11=116.12522076
 A12=107.05986774
 A13=112.62711553
 A14=110.84811506
 A15=110.91608071
 A16=113.92758454
 A17=110.61484667
 A18=126.57446731
 A19=115.10221161
 A20=122.65494804
 A21=120.94935808
 D4=-178.16155309
 D5=178.56648579
 D6=-180.70834608
 D7=182.83944683
 D8=-118.2092687
 D9=119.9299317
 D10=156.65719703
 D11=-128.10924933
 D12=111.77186077
 D13=3.46586328
 D14=-120.76455115
 D15=121.19455258
 D16=153.06711977
 D17=123.11923839
 D18=126.47838119
 D19=178.05185055
 D20=-0.91813245
 D21=179.6478291
 Recover connectivity data from disk.

 GradGradGradGradGradGradGradGradGradGradGradGradGradGradGradGradGradGrad
 Berny optimization.
 Initialization pass.
                       ----------------------------
                       !    Initial Parameters    !
                       ! (Angstroms and Degrees)  !
 ----------------------                            ----------------------
 !      Name          Value   Derivative information (Atomic Units)     !
 ------------------------------------------------------------------------
 !       R2          1.3278   estimate D2E/DX2                          !
 !       R3          1.5156   estimate D2E/DX2                          !
 !       R4          1.525    estimate D2E/DX2                          !
 !       R5          1.0856   estimate D2E/DX2                          !
 !       R6          1.4987   estimate D2E/DX2                          !
 !       R7          1.4285   estimate D2E/DX2                          !
 !       R8          1.0928   estimate D2E/DX2                          !
 !       R9          1.0986   estimate D2E/DX2                          !
 !       R10         1.5309   estimate D2E/DX2                          !
 !       R11         1.4983   estimate D2E/DX2                          !
 !       R12         1.0998   estimate D2E/DX2                          !
 !       R13         1.0903   estimate D2E/DX2                          !
 !       R14         1.0941   estimate D2E/DX2                          !
 !       R15         1.094    estimate D2E/DX2                          !
 !       R16         1.0897   estimate D2E/DX2                          !
 !       R17         1.0989   estimate D2E/DX2                          !
 !       R18         1.3277   estimate D2E/DX2                          !
 !       R19         1.0859   estimate D2E/DX2                          !
 !       R20         1.0833   estimate D2E/DX2                          !
 !       R21         1.0825   estimate D2E/DX2                          !
 !       A3        126.4096   estimate D2E/DX2                          !
 !       A4        127.4875   estimate D2E/DX2                          !
 !       A5        118.7301   estimate D2E/DX2                          !
 !       A6        125.8341   estimate D2E/DX2                          !
 !       A7        106.4154   estimate D2E/DX2                          !
 !       A8        113.3272   estimate D2E/DX2                          !
 !       A9        111.1556   estimate D2E/DX2                          !
 !       A10       100.959    estimate D2E/DX2                          !
 !       A11       116.1252   estimate D2E/DX2                          !
 !       A12       107.0599   estimate D2E/DX2                          !
 !       A13       112.6271   estimate D2E/DX2                          !
 !       A14       110.8481   estimate D2E/DX2                          !
 !       A15       110.9161   estimate D2E/DX2                          !
 !       A16       113.9276   estimate D2E/DX2                          !
 !       A17       110.6148   estimate D2E/DX2                          !
 !       A18       126.5745   estimate D2E/DX2                          !
 !       A19       115.1022   estimate D2E/DX2                          !
 !       A20       122.6549   estimate D2E/DX2                          !
 !       A21       120.9494   estimate D2E/DX2                          !
 !       D4       -178.1616   estimate D2E/DX2                          !
 !       D5        178.5665   estimate D2E/DX2                          !
 !       D6       -180.7083   estimate D2E/DX2                          !
 !       D7        182.8394   estimate D2E/DX2                          !
 !       D8       -118.2093   estimate D2E/DX2                          !
 !       D9        119.9299   estimate D2E/DX2                          !
 !       D10       156.6572   estimate D2E/DX2                          !
 !       D11      -128.1092   estimate D2E/DX2                          !
 !       D12       111.7719   estimate D2E/DX2                          !
 !       D13         3.4659   estimate D2E/DX2                          !
 !       D14      -120.7646   estimate D2E/DX2                          !
 !       D15       121.1946   estimate D2E/DX2                          !
 !       D16       153.0671   estimate D2E/DX2                          !
 !       D17       123.1192   estimate D2E/DX2                          !
 !       D18       126.4784   estimate D2E/DX2                          !
 !       D19       178.0519   estimate D2E/DX2                          !
 !       D20        -0.9181   estimate D2E/DX2                          !
 !       D21       179.6478   estimate D2E/DX2                          !
 ------------------------------------------------------------------------
 Trust Radius=1.00D-01 FncErr=1.00D-07 GrdErr=1.00D-06 EigMax=2.50D+02 EigMin=1.00D-04
 Number of steps in this run=     67 maximum allowed number of steps=    114.
 GradGradGradGradGradGradGradGradGradGradGradGradGradGradGradGradGradGrad

 ---------------------------------------------------------------------------------------------------
                            Z-MATRIX (ANGSTROMS AND DEGREES)
   CD    Cent   Atom    N1       Length/X        N2       Alpha/Y        N3        Beta/Z          J
 ---------------------------------------------------------------------------------------------------
      1      1  C 
      2      2  C        1   1.327810(     1)
      3      3  C        1   1.515615(     2)      2  126.410(    21)
      4      4  C        1   1.525016(     3)      2  127.487(    22)      3 -178.162(    40)      0
      5      5  H        2   1.085562(     4)      1  118.730(    23)      3  178.566(    41)      0
      6      6  C        2   1.498698(     5)      1  125.834(    24)      5 -180.708(    42)      0
      7      7  O        3   1.428462(     6)      1  106.415(    25)      2  182.839(    43)      0
      8      8  H        3   1.092796(     7)      1  113.327(    26)      7 -118.209(    44)      0
      9      9  H        3   1.098617(     8)      1  111.156(    27)      7  119.930(    45)      0
     10     10  C        4   1.530896(     9)      1  100.959(    28)      2  156.657(    46)      0
     11     11  C        4   1.498304(    10)      1  116.125(    29)     10 -128.109(    47)      0
     12     12  H        4   1.099789(    11)      1  107.060(    30)     10  111.772(    48)      0
     13     13  H        6   1.090287(    12)      2  112.627(    31)      1    3.466(    49)      0
     14     14  H        6   1.094122(    13)      2  110.848(    32)     13 -120.765(    50)      0
     15     15  H        6   1.093979(    14)      2  110.916(    33)     13  121.195(    51)      0
     16     16  H       10   1.089738(    15)      4  113.928(    34)      1  153.067(    52)      0
     17     17  H       10   1.098906(    16)      4  110.615(    35)     16  123.119(    53)      0
     18     18  C       11   1.327664(    17)      4  126.574(    36)      1  126.478(    54)      0
     19     19  H       11   1.085908(    18)      4  115.102(    37)     18  178.052(    55)      0
     20     20  H       18   1.083266(    19)     11  122.655(    38)      4   -0.918(    56)      0
     21     21  H       18   1.082472(    20)     11  120.949(    39)     20  179.648(    57)      0
 ---------------------------------------------------------------------------------------------------
                         Z-Matrix orientation:                         
 ---------------------------------------------------------------------
 Center     Atomic      Atomic             Coordinates (Angstroms)
 Number     Number       Type             X           Y           Z
 ---------------------------------------------------------------------
      1          6           0        0.000000    0.000000    0.000000
      2          6           0        0.000000    0.000000    1.327810
      3          6           0        1.219758    0.000000   -0.899599
      4          6           0       -1.209457    0.038821   -0.928107
      5          1           0       -0.951625    0.023814    1.849622
      6          6           0        1.214168   -0.045410    2.205208
      7          8           0        0.732330    0.067878   -2.240610
      8          1           0        1.823210   -0.906696   -0.810428
      9          1           0        1.868014    0.861519   -0.688632
     10          6           0       -0.581768    0.614507   -2.200205
     11          6           0       -2.430850    0.721233   -0.391986
     12          1           0       -1.481525   -1.003989   -1.147337
     13          1           0        2.143953   -0.019302    1.636398
     14          1           0        1.221327   -0.954923    2.813351
     15          1           0        1.221989    0.795428    2.905009
     16          1           0       -1.092978    0.321551   -3.116922
     17          1           0       -0.541128    1.711483   -2.149338
     18          6           0       -3.108875    1.702634   -0.974931
     19          1           0       -2.795192    0.336070    0.555696
     20          1           0       -2.818804    2.127511   -1.928243
     21          1           0       -3.995501    2.117613   -0.512945
 ---------------------------------------------------------------------
                    Distance matrix (angstroms):
                    1          2          3          4          5
     1  C    0.000000
     2  C    1.327810   0.000000
     3  C    1.515615   2.539519   0.000000
     4  C    1.525016   2.559971   2.429692   0.000000
     5  H    2.080206   1.085562   3.503382   2.789710   0.000000
     6  C    2.517779   1.498698   3.105145   3.962161   2.195881
     7  O    2.358230   3.643423   1.428462   2.343938   4.423533
     8  H    2.191571   2.952668   1.092796   3.178823   3.954923
     9  H    2.169310   2.880578   1.098617   3.194527   3.885208
    10  C    2.357324   3.628080   2.305361   1.530896   4.109357
    11  C    2.565709   3.063806   3.755634   1.498304   2.774762
    12  H    2.125863   3.054383   2.892455   1.099789   3.212310
    13  H    2.697167   2.166134   2.699221   4.222017   3.103212
    14  H    3.212237   2.147173   3.833782   4.571077   2.570685
    15  H    3.250391   2.147911   3.886869   4.601865   2.536499
    16  H    3.318614   4.588424   3.220041   2.210071   4.977468
    17  H    2.800294   3.913125   2.755311   2.176205   4.359864
    18  C    3.676215   4.226899   4.652064   2.525521   3.930683
    19  H    2.869641   2.919281   4.283766   2.191936   2.273872
    20  H    4.023690   4.803524   4.679145   2.820088   4.710007
    21  H    4.550981   4.882283   5.642048   3.500825   4.385305
                    6          7          8          9         10
     6  C    0.000000
     7  O    4.473288   0.000000
     8  H    3.194809   2.045784   0.000000
     9  H    3.102313   2.080452   1.772971   0.000000
    10  C    4.802973   1.423829   3.166932   2.889169   0.000000
    11  C    4.540850   3.721558   4.574087   4.311370   2.588466
    12  H    4.407402   2.691709   3.323288   3.861339   2.130170
    13  H    1.090287   4.126921   2.622461   2.501551   4.748768
    14  H    1.094122   5.179553   3.673740   3.997694   5.554279
    15  H    1.093979   5.219817   4.130758   3.651845   5.417516
    16  H    5.812285   2.040593   3.915694   3.867251   1.089738
    17  H    5.012964   2.081216   3.773279   2.942798   1.098906
    18  C    5.644258   4.362250   5.582214   5.055577   3.011907
    19  H    4.352171   4.509397   4.973972   4.854888   3.545669
    20  H    6.170241   4.117064   5.657227   5.010552   2.714309
    21  H    6.261604   5.434945   6.564475   5.999120   4.093867
                   11         12         13         14         15
    11  C    0.000000
    12  H    2.109067   0.000000
    13  H    5.058810   4.675776   0.000000
    14  H    5.140241   4.795296   1.764042   0.000000
    15  H    4.921271   5.193110   1.767251   1.752750   0.000000
    16  H    3.061850   2.405679   5.760899   6.492575   6.468947
    17  H    2.764043   3.043377   4.953491   5.902902   5.430852
    18  C    1.327664   3.162879   6.113617   6.337534   5.885009
    19  H    1.085908   2.534127   5.068468   4.784987   4.676327
    20  H    2.118541   3.493483   6.476453   6.950308   6.439160
    21  H    2.100629   4.057946   6.846823   6.907968   6.375954
                   16         17         18         19         20
    16  H    0.000000
    17  H    1.781199   0.000000
    18  C    3.249516   2.823585   0.000000
    19  H    4.047946   3.780182   2.075744   0.000000
    20  H    2.766392   2.325892   1.083266   3.062641   0.000000
    21  H    4.293154   3.843881   1.082472   2.399298   1.840593
                   21
    21  H    0.000000
 Symmetry turned off by external request.
 Stoichiometry    C8H12O
 Framework group  C1[X(C8H12O)]
 Deg. of freedom    57
 Full point group                 C1      NOp   1
 Rotational constants (GHZ):           2.1573604           1.3304931           0.8745633
 Standard basis: def2TZVP (5D, 7F)
 The following finite field(s) will be applied:
 An electric field of              0.0021  0.0031 -0.0032
   351 basis functions,   555 primitive gaussians,   396 cartesian basis functions
    34 alpha electrons       34 beta electrons
       nuclear repulsion energy       444.6080907530 Hartrees.
 NAtoms=   21 NActive=   21 NUniq=   21 SFac= 1.00D+00 NAtFMM=   60 NAOKFM=F Big=F
 Integral buffers will be    131072 words long.
 Raffenetti 2 integral format.
 Two-electron integral symmetry is turned off.
 One-electron integrals computed using PRISM.
   1 Symmetry operations used in ECPInt.
 ECPInt:  NShTT=   10878 NPrTT=   32112 LenC2=   10561 LenP2D=   24701.
 LDataN:  DoStor=T MaxTD1= 6 Len=  172
 NBasis=   351 RedAO= T EigKep=  7.13D-05  NBF=   351
 NBsUse=   351 1.00D-06 EigRej= -1.00D+00 NBFU=   351
 The nuclear repulsion energy is now       444.8165878752 hartrees.
 Initial guess from the checkpoint file:  "checkpoint.chk"
 B after Tr=     0.000000    0.000000    0.000000
         Rot=    1.000000    0.000000   -0.000000   -0.000000 Ang=   0.00 deg.
 Requested convergence on RMS density matrix=1.00D-08 within 128 cycles.
 Requested convergence on MAX density matrix=1.00D-06.
 Requested convergence on             energy=1.00D-06.
 No special actions if energy rises.
 SCF Done:  E(RB3LYP) =  -387.394650860     A.U. after   10 cycles
            NFock= 10  Conv=0.47D-08     -V/T= 2.0053
   1 Symmetry operations used in ECPInt.
 ECPInt:  NShTT=   10878 NPrTT=   32112 LenC2=   10561 LenP2D=   24701.
 LDataN:  DoStor=T MaxTD1= 7 Len=  274
 Calling FoFJK, ICntrl=      2127 FMM=F ISym2X=0 I1Cent= 0 IOpClX= 0 NMat=1 NMatS=1 NMatT=0.
 -------------------------------------------------------------------
 Center     Atomic                   Forces (Hartrees/Bohr)
 Number     Number              X              Y              Z
 -------------------------------------------------------------------
      1        6           0.000107596    0.000565120    0.000115006
      2        6          -0.000035823    0.000008934    0.000100602
      3        6          -0.000086077   -0.000582460    0.000794173
      4        6          -0.000090753   -0.000197370   -0.000206477
      5        1           0.000183297   -0.000196390   -0.000008581
      6        6          -0.000093230   -0.000145705   -0.000001298
      7        8           0.000543656    0.000586517   -0.001052938
      8        1          -0.000051255   -0.000002477   -0.000043134
      9        1           0.000183832    0.000226008   -0.000007968
     10        6          -0.000379479   -0.000611290    0.000493315
     11        6           0.000125195   -0.000027916    0.000225048
     12        1          -0.000131384    0.000128721    0.000006507
     13        1           0.000150714   -0.000099673   -0.000149226
     14        1          -0.000124928    0.000217096   -0.000087407
     15        1          -0.000190228   -0.000140048    0.000093845
     16        1          -0.000106447   -0.000121867   -0.000087999
     17        1          -0.000010848    0.000362283    0.000080708
     18        6          -0.000023204    0.000256181    0.000266804
     19        1          -0.000002273   -0.000020286   -0.000240818
     20        1           0.000073496   -0.000048988   -0.000281245
     21        1          -0.000041857   -0.000156390   -0.000008916
 -------------------------------------------------------------------
 Cartesian Forces:  Max     0.001052938 RMS     0.000278755
 -----------------------------------------------------------------------------------------------
                       Internal Coordinate Forces (Hartree/Bohr or radian)
  Cent   Atom   N1       Length/X         N2         Alpha/Y        N3         Beta/Z          J
 -----------------------------------------------------------------------------------------------
      1  C 
      2  C        1  -0.000052(     1)
      3  C        1   0.000659(     2)      2  -0.002513(    21)
      4  C        1   0.000305(     3)      2  -0.002130(    22)      3  -0.000891(    40)     0
      5  H        2  -0.000169(     4)      1   0.000170(    23)      3  -0.000158(    41)     0
      6  C        2  -0.000288(     5)      1   0.000376(    24)      5  -0.000502(    42)     0
      7  O        3   0.000831(     6)      1   0.002329(    25)      2   0.001494(    43)     0
      8  H        3  -0.000030(     7)      1  -0.000009(    26)      7   0.000114(    44)     0
      9  H        3   0.000284(     8)      1   0.000112(    27)      7  -0.000070(    45)     0
     10  C        4  -0.000747(     9)      1   0.000806(    28)      2   0.000396(    46)     0
     11  C        4  -0.000120(    10)      1   0.000161(    29)     10   0.000027(    47)     0
     12  H        4  -0.000091(    11)      1   0.000283(    30)     10   0.000167(    48)     0
     13  H        6   0.000204(    12)      2  -0.000091(    31)      1   0.000051(    49)     0
     14  H        6  -0.000230(    13)      2  -0.000171(    32)     13  -0.000200(    50)     0
     15  H        6  -0.000049(    14)      2  -0.000171(    33)     13   0.000454(    51)     0
     16  H       10   0.000157(    15)      4  -0.000180(    34)      1  -0.000068(    52)     0
     17  H       10   0.000365(    16)      4  -0.000142(    35)     16   0.000010(    53)     0
     18  C       11   0.000044(    17)      4  -0.000087(    36)      1  -0.000091(    54)     0
     19  H       11  -0.000202(    18)      4  -0.000018(    37)     18  -0.000245(    55)     0
     20  H       18   0.000248(    19)     11  -0.000204(    38)      4  -0.000019(    56)     0
     21  H       18  -0.000029(    20)     11  -0.000179(    39)     20  -0.000234(    57)     0
 -----------------------------------------------------------------------------------------------
 Internal  Forces:  Max     0.002512983 RMS     0.000644160

 GradGradGradGradGradGradGradGradGradGradGradGradGradGradGradGradGradGrad
 Berny optimization.
 Search for a local minimum.
 Step number   1 out of a maximum of   67
 All quantities printed in internal units (Hartrees-Bohrs-Radians)
 Second derivative matrix not updated -- first step.
 ITU=  0
     Eigenvalues ---    0.01543   0.02924   0.03382   0.04048   0.05200
     Eigenvalues ---    0.06687   0.08270   0.08904   0.10123   0.11527
     Eigenvalues ---    0.13701   0.13909   0.15639   0.16544   0.17832
     Eigenvalues ---    0.19833   0.20144   0.20572   0.21657   0.22698
     Eigenvalues ---    0.23633   0.24528   0.24683   0.26450   0.28479
     Eigenvalues ---    0.29880   0.32227   0.32514   0.32555   0.32922
     Eigenvalues ---    0.33706   0.33804   0.33836   0.34340   0.34357
     Eigenvalues ---    0.34491   0.34738   0.34779   0.34846   0.35076
     Eigenvalues ---    0.35290   0.35331   0.35603   0.35698   0.38673
     Eigenvalues ---    0.39492   0.42182   0.42994   0.47634   0.52817
     Eigenvalues ---    0.53719   0.54056   0.60026   0.60061   1.35154
     Eigenvalues ---    1.60143  20.44350
 RFO step:  Lambda=-3.20094486D-05 EMin= 1.54255569D-02
 Linear search not attempted -- first point.
 Variable       Old X    -DE/DX   Delta X   Delta X   Delta X     New X
                                 (Linear)    (Quad)   (Total)
    R2        2.50920  -0.00005   0.00000  -0.00009  -0.00009   2.50911
    R3        2.86410   0.00066   0.00000   0.00014   0.00014   2.86423
    R4        2.88186   0.00030   0.00000  -0.00013  -0.00013   2.88174
    R5        2.05141  -0.00017   0.00000  -0.00048  -0.00048   2.05094
    R6        2.83213  -0.00029   0.00000  -0.00089  -0.00089   2.83124
    R7        2.69940   0.00083   0.00000   0.00203   0.00203   2.70144
    R8        2.06508  -0.00003   0.00000  -0.00009  -0.00009   2.06500
    R9        2.07608   0.00028   0.00000   0.00086   0.00086   2.07694
   R10        2.89297  -0.00075   0.00000  -0.00085  -0.00085   2.89212
   R11        2.83138  -0.00012   0.00000  -0.00038  -0.00038   2.83100
   R12        2.07830  -0.00009   0.00000  -0.00028  -0.00028   2.07802
   R13        2.06034   0.00020   0.00000   0.00059   0.00059   2.06093
   R14        2.06759  -0.00023   0.00000  -0.00067  -0.00067   2.06693
   R15        2.06732  -0.00005   0.00000  -0.00014  -0.00014   2.06718
   R16        2.05931   0.00016   0.00000   0.00044   0.00044   2.05975
   R17        2.07663   0.00036   0.00000   0.00110   0.00110   2.07773
   R18        2.50892   0.00004   0.00000   0.00007   0.00007   2.50899
   R19        2.05207  -0.00020   0.00000  -0.00057  -0.00057   2.05150
   R20        2.04708   0.00025   0.00000   0.00070   0.00070   2.04777
   R21        2.04557  -0.00003   0.00000  -0.00007  -0.00007   2.04550
    A3        2.20626  -0.00251   0.00000  -0.00067  -0.00067   2.20559
    A4        2.22508  -0.00213   0.00000   0.00075   0.00075   2.22582
    A5        2.07223   0.00017   0.00000   0.00010   0.00010   2.07234
    A6        2.19622   0.00038   0.00000   0.00080   0.00080   2.19702
    A7        1.85730   0.00233   0.00000   0.00135   0.00135   1.85865
    A8        1.97793  -0.00001   0.00000   0.00114   0.00114   1.97907
    A9        1.94003   0.00011   0.00000  -0.00129  -0.00129   1.93874
   A10        1.76207   0.00081   0.00000  -0.00104  -0.00104   1.76103
   A11        2.02677   0.00016   0.00000  -0.00005  -0.00005   2.02672
   A12        1.86855   0.00028   0.00000   0.00181   0.00181   1.87036
   A13        1.96571  -0.00009   0.00000   0.00069   0.00069   1.96640
   A14        1.93466  -0.00017   0.00000  -0.00118  -0.00118   1.93349
   A15        1.93585  -0.00017   0.00000  -0.00063  -0.00063   1.93523
   A16        1.98841  -0.00018   0.00000  -0.00014  -0.00014   1.98827
   A17        1.93059  -0.00014   0.00000  -0.00216  -0.00216   1.92843
   A18        2.20914  -0.00009   0.00000  -0.00022  -0.00022   2.20892
   A19        2.00891  -0.00002   0.00000   0.00015   0.00015   2.00906
   A20        2.14073  -0.00020   0.00000  -0.00035  -0.00035   2.14038
   A21        2.11096  -0.00018   0.00000  -0.00038  -0.00038   2.11058
    D4       -3.10951  -0.00089   0.00000   0.00026   0.00026  -3.10924
    D5        3.11657  -0.00016   0.00000   0.00149   0.00149   3.11806
    D6       -3.15396  -0.00050   0.00000  -0.00579  -0.00579  -3.15975
    D7        3.19115   0.00149   0.00000   0.01527   0.01527   3.20642
    D8       -2.06314   0.00011   0.00000  -0.00218  -0.00218  -2.06532
    D9        2.09317  -0.00007   0.00000  -0.00193  -0.00193   2.09124
   D10        2.73418   0.00040   0.00000  -0.00966  -0.00966   2.72453
   D11       -2.23593   0.00003   0.00000   0.00210   0.00210  -2.23383
   D12        1.95079   0.00017   0.00000   0.00152   0.00152   1.95231
   D13        0.06049   0.00005   0.00000   0.00278   0.00278   0.06327
   D14       -2.10774  -0.00020   0.00000  -0.00010  -0.00010  -2.10784
   D15        2.11524   0.00045   0.00000   0.00254   0.00254   2.11779
   D16        2.67153  -0.00007   0.00000   0.00271   0.00271   2.67423
   D17        2.14884   0.00001   0.00000  -0.00154  -0.00154   2.14730
   D18        2.20746  -0.00009   0.00000  -0.00181  -0.00181   2.20566
   D19        3.10759  -0.00025   0.00000  -0.00190  -0.00190   3.10569
   D20       -0.01602  -0.00002   0.00000   0.00020   0.00020  -0.01582
   D21        3.13545  -0.00023   0.00000  -0.00315  -0.00315   3.13230
         Item               Value     Threshold  Converged?
 Maximum Force            0.002513     0.000450     NO 
 RMS     Force            0.000644     0.000300     NO 
 Maximum Displacement     0.015271     0.001800     NO 
 RMS     Displacement     0.002798     0.001200     NO 
 Predicted change in Energy=-1.601187D-05
 GradGradGradGradGradGradGradGradGradGradGradGradGradGradGradGradGradGrad

 ---------------------------------------------------------------------------------------------------
                            Z-MATRIX (ANGSTROMS AND DEGREES)
   CD    Cent   Atom    N1       Length/X        N2       Alpha/Y        N3        Beta/Z          J
 ---------------------------------------------------------------------------------------------------
      1      1  C 
      2      2  C        1   1.327764(     1)
      3      3  C        1   1.515688(     2)      2  126.371(    21)
      4      4  C        1   1.524950(     3)      2  127.530(    22)      3 -178.146(    40)      0
      5      5  H        2   1.085309(     4)      1  118.736(    23)      3  178.652(    41)      0
      6      6  C        2   1.498229(     5)      1  125.880(    24)      5 -181.040(    42)      0
      7      7  O        3   1.429539(     6)      1  106.493(    25)      2  183.714(    43)      0
      8      8  H        3   1.092751(     7)      1  113.392(    26)      7 -118.334(    44)      0
      9      9  H        3   1.099071(     8)      1  111.082(    27)      7  119.819(    45)      0
     10     10  C        4   1.530444(     9)      1  100.900(    28)      2  156.104(    46)      0
     11     11  C        4   1.498103(    10)      1  116.122(    29)     10 -127.989(    47)      0
     12     12  H        4   1.099640(    11)      1  107.164(    30)     10  111.859(    48)      0
     13     13  H        6   1.090599(    12)      2  112.666(    31)      1    3.625(    49)      0
     14     14  H        6   1.093770(    13)      2  110.781(    32)     13 -120.770(    50)      0
     15     15  H        6   1.093907(    14)      2  110.880(    33)     13  121.340(    51)      0
     16     16  H       10   1.089971(    15)      4  113.919(    34)      1  153.222(    52)      0
     17     17  H       10   1.099488(    16)      4  110.491(    35)     16  123.031(    53)      0
     18     18  C       11   1.327702(    17)      4  126.562(    36)      1  126.375(    54)      0
     19     19  H       11   1.085606(    18)      4  115.111(    37)     18  177.943(    55)      0
     20     20  H       18   1.083634(    19)     11  122.635(    38)      4   -0.906(    56)      0
     21     21  H       18   1.082433(    20)     11  120.927(    39)     20  179.468(    57)      0
 ---------------------------------------------------------------------------------------------------
                         Z-Matrix orientation:                         
 ---------------------------------------------------------------------
 Center     Atomic      Atomic             Coordinates (Angstroms)
 Number     Number       Type             X           Y           Z
 ---------------------------------------------------------------------
      1          6           0        0.000000    0.000000    0.000000
      2          6           0        0.000000    0.000000    1.327764
      3          6           0        1.220423    0.000000   -0.898820
      4          6           0       -1.208699    0.039117   -0.928971
      5          1           0       -0.951383    0.022390    1.849554
      6          6           0        1.212880   -0.050590    2.205861
      7          8           0        0.736060    0.088800   -2.240866
      8          1           0        1.817524   -0.911762   -0.819673
      9          1           0        1.874694    0.854825   -0.677098
     10          6           0       -0.581797    0.627913   -2.194899
     11          6           0       -2.433340    0.712940   -0.389963
     12          1           0       -1.477137   -1.002749   -1.156271
     13          1           0        2.143894   -0.025741    1.638410
     14          1           0        1.215895   -0.961485    2.811332
     15          1           0        1.220425    0.787408    2.908950
     16          1           0       -1.091492    0.341491   -3.114795
     17          1           0       -0.546964    1.725085   -2.132653
     18          6           0       -3.113804    1.696199   -0.966993
     19          1           0       -2.798976    0.318386    0.552999
     20          1           0       -2.823193    2.128866   -1.917049
     21          1           0       -4.004216    2.102505   -0.504670
 ---------------------------------------------------------------------
                    Distance matrix (angstroms):
                    1          2          3          4          5
     1  C    0.000000
     2  C    1.327764   0.000000
     3  C    1.515688   2.539115   0.000000
     4  C    1.524950   2.560339   2.429624   0.000000
     5  H    2.080020   1.085309   3.502970   2.790465   0.000000
     6  C    2.517828   1.498229   3.105102   3.962230   2.194610
     7  O    2.360329   3.644831   1.429539   2.346407   4.425315
     8  H    2.192388   2.957395   1.092751   3.173979   3.957810
     9  H    2.168794   2.874835   1.099071   3.199396   3.881189
    10  C    2.355917   3.625178   2.306965   1.530444   4.106197
    11  C    2.565443   3.062681   3.757286   1.498103   2.772814
    12  H    2.127063   3.059062   2.889396   1.099640   3.219054
    13  H    2.698395   2.166436   2.700185   4.223214   3.102843
    14  H    3.210365   2.145654   3.832715   4.568340   2.567123
    15  H    3.251375   2.146998   3.888332   4.603284   2.534624
    16  H    3.318120   4.587407   3.220576   2.209750   4.976567
    17  H    2.797015   3.905070   2.760782   2.174679   4.349793
    18  C    3.675315   4.223597   4.654810   2.525231   3.925639
    19  H    2.870792   2.921626   4.285407   2.191622   2.276460
    20  H    4.022135   4.799094   4.681847   2.819564   4.704064
    21  H    4.550711   4.879763   5.645594   3.500360   4.380530
                    6          7          8          9         10
     6  C    0.000000
     7  O    4.474390   0.000000
     8  H    3.203290   2.047065   0.000000
     9  H    3.093417   2.080542   1.773253   0.000000
    10  C    4.800824   1.424606   3.165215   2.896473   0.000000
    11  C    4.540506   3.722968   4.571012   4.319923   2.587128
    12  H    4.409843   2.695564   3.313059   3.861989   2.130596
    13  H    1.090599   4.128426   2.633197   2.491876   4.748780
    14  H    1.093770   5.182475   3.680846   3.987749   5.551597
    15  H    1.093907   5.219509   4.140813   3.645868   5.415045
    16  H    5.811474   2.041458   3.911598   3.873518   1.089971
    17  H    5.007272   2.082136   3.777258   2.956420   1.099488
    18  C    5.642558   4.362102   5.580426   5.067254   3.009991
    19  H    4.354662   4.511637   4.970871   4.862520   3.544380
    20  H    6.167520   4.115217   5.655608   5.023028   2.711811
    21  H    6.261061   5.435035   6.563359   6.012323   4.091974
                   11         12         13         14         15
    11  C    0.000000
    12  H    2.108350   0.000000
    13  H    5.060733   4.677248   0.000000
    14  H    5.135067   4.795414   1.764240   0.000000
    15  H    4.923248   5.196876   1.768693   1.751621   0.000000
    16  H    3.059941   2.406558   5.761557   6.491592   6.467558
    17  H    2.760402   3.042962   4.952476   5.896466   5.424081
    18  C    1.327702   3.162092   6.115275   6.331297   5.885098
    19  H    1.085606   2.532639   5.072328   4.780934   4.682529
    20  H    2.118684   3.492515   6.477313   6.944213   6.437440
    21  H    2.100405   4.056268   6.849926   6.901700   6.378022
                   16         17         18         19         20
    16  H    0.000000
    17  H    1.781978   0.000000
    18  C    3.246234   2.819267   0.000000
    19  H    4.045831   3.776650   2.075538   0.000000
    20  H    2.761901   2.321798   1.083634   3.062607   0.000000
    21  H    4.289276   3.839970   1.082433   2.398822   1.841284
                   21
    21  H    0.000000
 Symmetry turned off by external request.
 Stoichiometry    C8H12O
 Framework group  C1[X(C8H12O)]
 Deg. of freedom    57
 Full point group                 C1      NOp   1
 Rotational constants (GHZ):           2.1565015           1.3310150           0.8745826
 Standard basis: def2TZVP (5D, 7F)
 The following finite field(s) will be applied:
 An electric field of              0.0021  0.0031 -0.0032
   351 basis functions,   555 primitive gaussians,   396 cartesian basis functions
    34 alpha electrons       34 beta electrons
       nuclear repulsion energy       444.5861966123 Hartrees.
 NAtoms=   21 NActive=   21 NUniq=   21 SFac= 1.00D+00 NAtFMM=   60 NAOKFM=F Big=F
 Integral buffers will be    131072 words long.
 Raffenetti 2 integral format.
 Two-electron integral symmetry is turned off.
 One-electron integrals computed using PRISM.
   1 Symmetry operations used in ECPInt.
 ECPInt:  NShTT=   10878 NPrTT=   32112 LenC2=   10561 LenP2D=   24703.
 LDataN:  DoStor=T MaxTD1= 6 Len=  172
 NBasis=   351 RedAO= T EigKep=  7.17D-05  NBF=   351
 NBsUse=   351 1.00D-06 EigRej= -1.00D+00 NBFU=   351
 The nuclear repulsion energy is now       444.7943679688 hartrees.
 Initial guess from the checkpoint file:  "checkpoint.chk"
 B after Tr=     0.000584    0.000998    0.000484
         Rot=    0.999995   -0.002685    0.000376   -0.001654 Ang=  -0.36 deg.
 Requested convergence on RMS density matrix=1.00D-08 within 128 cycles.
 Requested convergence on MAX density matrix=1.00D-06.
 Requested convergence on             energy=1.00D-06.
 No special actions if energy rises.
 SCF Done:  E(RB3LYP) =  -387.394674737     A.U. after    9 cycles
            NFock=  9  Conv=0.35D-08     -V/T= 2.0053
   1 Symmetry operations used in ECPInt.
 ECPInt:  NShTT=   10878 NPrTT=   32112 LenC2=   10561 LenP2D=   24703.
 LDataN:  DoStor=T MaxTD1= 7 Len=  274
 Calling FoFJK, ICntrl=      2127 FMM=F ISym2X=0 I1Cent= 0 IOpClX= 0 NMat=1 NMatS=1 NMatT=0.
 -------------------------------------------------------------------
 Center     Atomic                   Forces (Hartrees/Bohr)
 Number     Number              X              Y              Z
 -------------------------------------------------------------------
      1        6           0.000227930    0.000148034   -0.000189478
      2        6          -0.000172519   -0.000347853   -0.000021855
      3        6           0.000111493    0.000299004    0.000579252
      4        6           0.000209535    0.000047003   -0.000081357
      5        1          -0.000011856   -0.000070422    0.000008402
      6        6           0.000070999    0.000077687   -0.000042318
      7        8          -0.000049042    0.000403909   -0.000303590
      8        1          -0.000105764   -0.000116806   -0.000026600
      9        1           0.000065059   -0.000138250   -0.000065438
     10        6          -0.000218594   -0.000127008    0.000131459
     11        6           0.000003532    0.000054867    0.000007796
     12        1          -0.000000245   -0.000016498    0.000046767
     13        1          -0.000027946   -0.000026446    0.000023289
     14        1          -0.000047227   -0.000027322   -0.000014887
     15        1          -0.000022708   -0.000040351    0.000055570
     16        1          -0.000006668   -0.000070255   -0.000010157
     17        1           0.000045450   -0.000015450   -0.000074525
     18        6          -0.000013177    0.000149145    0.000030373
     19        1          -0.000032428   -0.000066820   -0.000036064
     20        1          -0.000017195   -0.000069631   -0.000011675
     21        1          -0.000008628   -0.000046536   -0.000004966
 -------------------------------------------------------------------
 Cartesian Forces:  Max     0.000579252 RMS     0.000139606
 -----------------------------------------------------------------------------------------------
                       Internal Coordinate Forces (Hartree/Bohr or radian)
  Cent   Atom   N1       Length/X         N2         Alpha/Y        N3         Beta/Z          J
 -----------------------------------------------------------------------------------------------
      1  C 
      2  C        1   0.000008(     1)
      3  C        1  -0.000091(     2)      2  -0.000492(    21)
      4  C        1   0.000028(     3)      2  -0.000335(    22)      3  -0.000446(    40)     0
      5  H        2   0.000013(     4)      1   0.000005(    23)      3  -0.000004(    41)     0
      6  C        2  -0.000009(     5)      1   0.000182(    24)      5  -0.000132(    42)     0
      7  O        3   0.000327(     6)      1   0.000135(    25)      2   0.001361(    43)     0
      8  H        3   0.000038(     7)      1  -0.000190(    26)      7   0.000237(    44)     0
      9  H        3  -0.000082(     8)      1   0.000269(    27)      7   0.000125(    45)     0
     10  C        4  -0.000194(     9)      1   0.000487(    28)      2   0.000561(    46)     0
     11  C        4   0.000060(    10)      1   0.000125(    29)     10  -0.000150(    47)     0
     12  H        4   0.000006(    11)      1  -0.000066(    30)     10   0.000074(    48)     0
     13  H        6  -0.000037(    12)      2   0.000013(    31)      1   0.000088(    49)     0
     14  H        6   0.000014(    13)      2  -0.000113(    32)     13   0.000000(    50)     0
     15  H        6   0.000005(    14)      2   0.000031(    33)     13   0.000136(    51)     0
     16  H       10   0.000030(    15)      4  -0.000076(    34)      1  -0.000080(    52)     0
     17  H       10  -0.000018(    16)      4   0.000179(    35)     16   0.000020(    53)     0
     18  C       11   0.000038(    17)      4   0.000076(    36)      1  -0.000050(    54)     0
     19  H       11   0.000004(    18)      4  -0.000041(    37)     18  -0.000149(    55)     0
     20  H       18  -0.000022(    19)     11  -0.000063(    38)      4   0.000040(    56)     0
     21  H       18  -0.000012(    20)     11  -0.000051(    39)     20  -0.000068(    57)     0
 -----------------------------------------------------------------------------------------------
 Internal  Forces:  Max     0.001360547 RMS     0.000249669

 GradGradGradGradGradGradGradGradGradGradGradGradGradGradGradGradGradGrad
 Berny optimization.
 Search for a local minimum.
 Step number   2 out of a maximum of   67
 All quantities printed in internal units (Hartrees-Bohrs-Radians)
 Update second derivatives using D2CorN and points    1    2
 DE= -2.39D-05 DEPred=-1.60D-05 R= 1.49D+00
 TightC=F SS=  1.41D+00  RLast= 2.11D-02 DXNew= 1.6818D-01 6.3373D-02
 Trust test= 1.49D+00 RLast= 2.11D-02 DXMaxT set to 1.00D-01
 ITU=  1  0
     Eigenvalues ---    0.00294   0.02921   0.03297   0.04032   0.05025
     Eigenvalues ---    0.06537   0.08304   0.08806   0.10149   0.11545
     Eigenvalues ---    0.13608   0.13969   0.15639   0.16498   0.17398
     Eigenvalues ---    0.19782   0.20150   0.20573   0.21656   0.22700
     Eigenvalues ---    0.23652   0.24164   0.24561   0.26218   0.28381
     Eigenvalues ---    0.29875   0.32246   0.32514   0.32561   0.32870
     Eigenvalues ---    0.33706   0.33807   0.33857   0.34343   0.34357
     Eigenvalues ---    0.34492   0.34738   0.34785   0.34843   0.35069
     Eigenvalues ---    0.35291   0.35333   0.35607   0.35698   0.38670
     Eigenvalues ---    0.39479   0.42086   0.42981   0.47621   0.52809
     Eigenvalues ---    0.53695   0.54032   0.60026   0.60060   1.35043
     Eigenvalues ---    1.60020  20.44334
 RFO step:  Lambda=-4.12924881D-05 EMin= 2.94336971D-03
 Quartic linear search produced a step of  0.91435.
 Variable       Old X    -DE/DX   Delta X   Delta X   Delta X     New X
                                 (Linear)    (Quad)   (Total)
    R2        2.50911   0.00001  -0.00008   0.00012   0.00004   2.50915
    R3        2.86423  -0.00009   0.00013  -0.00185  -0.00173   2.86251
    R4        2.88174   0.00003  -0.00012  -0.00186  -0.00197   2.87976
    R5        2.05094   0.00001  -0.00044   0.00050   0.00007   2.05100
    R6        2.83124  -0.00001  -0.00081   0.00057  -0.00024   2.83100
    R7        2.70144   0.00033   0.00186   0.00292   0.00478   2.70622
    R8        2.06500   0.00004  -0.00008   0.00050   0.00042   2.06542
    R9        2.07694  -0.00008   0.00079  -0.00147  -0.00068   2.07626
   R10        2.89212  -0.00019  -0.00078  -0.00135  -0.00213   2.88999
   R11        2.83100   0.00006  -0.00035   0.00092   0.00057   2.83157
   R12        2.07802   0.00001  -0.00026   0.00020  -0.00005   2.07796
   R13        2.06093  -0.00004   0.00054  -0.00084  -0.00031   2.06063
   R14        2.06693   0.00001  -0.00061   0.00068   0.00007   2.06700
   R15        2.06718   0.00000  -0.00013   0.00017   0.00005   2.06723
   R16        2.05975   0.00003   0.00040  -0.00008   0.00032   2.06007
   R17        2.07773  -0.00002   0.00101  -0.00096   0.00005   2.07778
   R18        2.50899   0.00004   0.00007   0.00018   0.00024   2.50923
   R19        2.05150   0.00000  -0.00052   0.00049  -0.00003   2.05147
   R20        2.04777  -0.00002   0.00064  -0.00078  -0.00014   2.04763
   R21        2.04550  -0.00001  -0.00007  -0.00002  -0.00008   2.04542
    A3        2.20559  -0.00049  -0.00062  -0.00010  -0.00072   2.20487
    A4        2.22582  -0.00033   0.00068   0.00105   0.00173   2.22755
    A5        2.07234   0.00001   0.00010  -0.00103  -0.00094   2.07140
    A6        2.19702   0.00018   0.00073   0.00123   0.00196   2.19899
    A7        1.85865   0.00013   0.00124  -0.00078   0.00046   1.85911
    A8        1.97907  -0.00019   0.00104  -0.00135  -0.00031   1.97875
    A9        1.93874   0.00027  -0.00118   0.00226   0.00108   1.93981
   A10        1.76103   0.00049  -0.00095  -0.00307  -0.00401   1.75702
   A11        2.02672   0.00012  -0.00004   0.00043   0.00038   2.02710
   A12        1.87036  -0.00007   0.00166  -0.00027   0.00139   1.87175
   A13        1.96640   0.00001   0.00063   0.00098   0.00161   1.96801
   A14        1.93349  -0.00011  -0.00108  -0.00174  -0.00282   1.93067
   A15        1.93523   0.00003  -0.00057   0.00124   0.00067   1.93590
   A16        1.98827  -0.00008  -0.00013   0.00177   0.00164   1.98990
   A17        1.92843   0.00018  -0.00198   0.00069  -0.00128   1.92715
   A18        2.20892   0.00008  -0.00020   0.00151   0.00131   2.21022
   A19        2.00906  -0.00004   0.00014  -0.00050  -0.00037   2.00870
   A20        2.14038  -0.00006  -0.00032   0.00068   0.00036   2.14073
   A21        2.11058  -0.00005  -0.00035  -0.00047  -0.00083   2.10975
    D4       -3.10924  -0.00045   0.00024   0.02301   0.02325  -3.08599
    D5        3.11806  -0.00000   0.00136  -0.00494  -0.00358   3.11449
    D6       -3.15975  -0.00013  -0.00530  -0.00860  -0.01390  -3.17365
    D7        3.20642   0.00136   0.01396   0.06418   0.07814   3.28456
    D8       -2.06532   0.00024  -0.00199   0.00114  -0.00086  -2.06617
    D9        2.09124   0.00013  -0.00177   0.00063  -0.00114   2.09011
   D10        2.72453   0.00056  -0.00883  -0.05640  -0.06523   2.65930
   D11       -2.23383  -0.00015   0.00192   0.00283   0.00475  -2.22908
   D12        1.95231   0.00007   0.00139   0.00344   0.00483   1.95715
   D13        0.06327   0.00009   0.00254   0.01099   0.01353   0.07679
   D14       -2.10784   0.00000  -0.00009   0.00108   0.00099  -2.10685
   D15        2.11779   0.00014   0.00233   0.00183   0.00416   2.12195
   D16        2.67423  -0.00008   0.00248   0.01632   0.01880   2.69303
   D17        2.14730   0.00002  -0.00141   0.00180   0.00039   2.14769
   D18        2.20566  -0.00005  -0.00165  -0.00496  -0.00661   2.19904
   D19        3.10569  -0.00015  -0.00174   0.00068  -0.00106   3.10463
   D20       -0.01582   0.00004   0.00019   0.00180   0.00198  -0.01384
   D21        3.13230  -0.00007  -0.00288  -0.00301  -0.00588   3.12641
         Item               Value     Threshold  Converged?
 Maximum Force            0.001361     0.000450     NO 
 RMS     Force            0.000250     0.000300     YES
 Maximum Displacement     0.078138     0.001800     NO 
 RMS     Displacement     0.014434     0.001200     NO 
 Predicted change in Energy=-3.537093D-05
 GradGradGradGradGradGradGradGradGradGradGradGradGradGradGradGradGradGrad

 ---------------------------------------------------------------------------------------------------
                            Z-MATRIX (ANGSTROMS AND DEGREES)
   CD    Cent   Atom    N1       Length/X        N2       Alpha/Y        N3        Beta/Z          J
 ---------------------------------------------------------------------------------------------------
      1      1  C 
      2      2  C        1   1.327787(     1)
      3      3  C        1   1.514774(     2)      2  126.330(    21)
      4      4  C        1   1.523905(     3)      2  127.629(    22)      3 -176.814(    40)      0
      5      5  H        2   1.085344(     4)      1  118.682(    23)      3  178.447(    41)      0
      6      6  C        2   1.498100(     5)      1  125.993(    24)      5 -181.837(    42)      0
      7      7  O        3   1.432069(     6)      1  106.519(    25)      2  188.191(    43)      0
      8      8  H        3   1.092971(     7)      1  113.374(    26)      7 -118.383(    44)      0
      9      9  H        3   1.098709(     8)      1  111.143(    27)      7  119.754(    45)      0
     10     10  C        4   1.529318(     9)      1  100.670(    28)      2  152.367(    46)      0
     11     11  C        4   1.498405(    10)      1  116.144(    29)     10 -127.717(    47)      0
     12     12  H        4   1.099611(    11)      1  107.243(    30)     10  112.136(    48)      0
     13     13  H        6   1.090437(    12)      2  112.758(    31)      1    4.400(    49)      0
     14     14  H        6   1.093807(    13)      2  110.619(    32)     13 -120.713(    50)      0
     15     15  H        6   1.093933(    14)      2  110.919(    33)     13  121.579(    51)      0
     16     16  H       10   1.090140(    15)      4  114.013(    34)      1  154.299(    52)      0
     17     17  H       10   1.099513(    16)      4  110.417(    35)     16  123.054(    53)      0
     18     18  C       11   1.327829(    17)      4  126.637(    36)      1  125.996(    54)      0
     19     19  H       11   1.085590(    18)      4  115.090(    37)     18  177.882(    55)      0
     20     20  H       18   1.083559(    19)     11  122.655(    38)      4   -0.793(    56)      0
     21     21  H       18   1.082389(    20)     11  120.880(    39)     20  179.130(    57)      0
 ---------------------------------------------------------------------------------------------------
                         Z-Matrix orientation:                         
 ---------------------------------------------------------------------
 Center     Atomic      Atomic             Coordinates (Angstroms)
 Number     Number       Type             X           Y           Z
 ---------------------------------------------------------------------
      1          6           0        0.000000    0.000000    0.000000
      2          6           0        0.000000    0.000000    1.327787
      3          6           0        1.220333    0.000000   -0.897400
      4          6           0       -1.205030    0.067070   -0.930425
      5          1           0       -0.951816    0.025807    1.848701
      6          6           0        1.209982   -0.071672    2.208192
      7          8           0        0.743291    0.195620   -2.233434
      8          1           0        1.774821   -0.941616   -0.875311
      9          1           0        1.912912    0.808110   -0.624537
     10          6           0       -0.578531    0.730335   -2.157777
     11          6           0       -2.441211    0.697735   -0.365327
     12          1           0       -1.459546   -0.965740   -1.209119
     13          1           0        2.143412   -0.049686    1.644917
     14          1           0        1.200603   -0.990387    2.801731
     15          1           0        1.222169    0.755959    2.923431
     16          1           0       -1.087214    0.500814   -3.094242
     17          1           0       -0.543739    1.821634   -2.028221
     18          6           0       -3.130230    1.702652   -0.893083
     19          1           0       -2.808915    0.248673    0.552084
     20          1           0       -2.840655    2.188300   -1.817416
     21          1           0       -4.030049    2.069940   -0.416648
 ---------------------------------------------------------------------
                    Distance matrix (angstroms):
                    1          2          3          4          5
     1  C    0.000000
     2  C    1.327787   0.000000
     3  C    1.514774   2.537848   0.000000
     4  C    1.523905   2.560492   2.426515   0.000000
     5  H    2.079499   1.085344   3.501424   2.790943   0.000000
     6  C    2.518988   1.498100   3.106436   3.962631   2.193651
     7  O    2.361986   3.643219   1.432069   2.347406   4.423353
     8  H    2.191529   2.981656   1.092971   3.146427   3.973751
     9  H    2.168484   2.850236   1.098709   3.219359   3.864657
    10  C    2.350337   3.607941   2.314702   1.529318   4.085041
    11  C    2.565114   3.051718   3.765215   1.498405   2.751673
    12  H    2.127180   3.082015   2.865584   1.099611   3.254415
    13  H    2.702302   2.167315   2.705166   4.225882   3.102847
    14  H    3.204998   2.143554   3.829468   4.564458   2.563947
    15  H    3.257548   2.147382   3.894897   4.606307   2.532662
    16  H    3.317707   4.581178   3.225167   2.210004   4.967559
    17  H    2.779871   3.857045   2.776519   2.172776   4.292091
    18  C    3.673549   4.198765   4.671877   2.526443   3.882612
    19  H    2.873437   2.924646   4.289252   2.191633   2.275896
    20  H    4.020072   4.769726   4.703904   2.821637   4.656662
    21  H    4.549675   4.854792   5.664123   3.500883   4.334260
                    6          7          8          9         10
     6  C    0.000000
     7  O    4.474068   0.000000
     8  H    3.253280   2.049843   0.000000
     9  H    3.048357   2.081275   1.772991   0.000000
    10  C    4.785778   1.427886   3.158861   2.926459   0.000000
    11  C    4.532791   3.725990   4.552195   4.363229   2.585250
    12  H    4.427612   2.692669   3.251637   3.855095   2.133731
    13  H    1.090437   4.130632   2.698693   2.437082   4.741084
    14  H    1.093807   5.193133   3.721927   3.934627   5.542825
    15  H    1.093933   5.209276   4.197335   3.614958   5.390904
    16  H    5.806948   2.045699   3.898142   3.898029   1.090140
    17  H    4.960578   2.083862   3.786882   3.005445   1.099513
    18  C    5.621705   4.367133   5.572431   5.128899   3.009322
    19  H    4.358537   4.514432   4.946198   4.898271   3.542592
    20  H    6.141714   4.121713   5.655666   5.091590   2.712695
    21  H    6.239728   5.440456   6.555636   6.078999   4.091338
                   11         12         13         14         15
    11  C    0.000000
    12  H    2.107795   0.000000
    13  H    5.061471   4.686788   0.000000
    14  H    5.113005   4.812891   1.764093   0.000000
    15  H    4.923380   5.218602   1.769844   1.750714   0.000000
    16  H    3.052714   2.417250   5.761911   6.497714   6.450638
    17  H    2.762022   3.046159   4.920830   5.854795   5.364042
    18  C    1.327829   3.164076   6.109290   6.297636   5.865610
    19  H    1.085590   2.529314   5.080240   4.761556   4.704281
    20  H    2.118939   3.496491   6.468172   6.911754   6.405761
    21  H    2.099997   4.055964   6.845034   6.861726   6.361483
                   16         17         18         19         20
    16  H    0.000000
    17  H    1.782226   0.000000
    18  C    3.234722   2.827124   0.000000
    19  H    4.040237   3.776665   2.075043   0.000000
    20  H    2.748171   2.335531   1.083559   3.062301   0.000000
    21  H    4.276908   3.848789   1.082389   2.397212   1.841417
                   21
    21  H    0.000000
 Symmetry turned off by external request.
 Stoichiometry    C8H12O
 Framework group  C1[X(C8H12O)]
 Deg. of freedom    57
 Full point group                 C1      NOp   1
 Rotational constants (GHZ):           2.1462438           1.3372714           0.8762438
 Standard basis: def2TZVP (5D, 7F)
 The following finite field(s) will be applied:
 An electric field of              0.0021  0.0031 -0.0032
   351 basis functions,   555 primitive gaussians,   396 cartesian basis functions
    34 alpha electrons       34 beta electrons
       nuclear repulsion energy       444.6250668979 Hartrees.
 NAtoms=   21 NActive=   21 NUniq=   21 SFac= 1.00D+00 NAtFMM=   60 NAOKFM=F Big=F
 Integral buffers will be    131072 words long.
 Raffenetti 2 integral format.
 Two-electron integral symmetry is turned off.
 One-electron integrals computed using PRISM.
   1 Symmetry operations used in ECPInt.
 ECPInt:  NShTT=   10878 NPrTT=   32112 LenC2=   10563 LenP2D=   24707.
 LDataN:  DoStor=T MaxTD1= 6 Len=  172
 NBasis=   351 RedAO= T EigKep=  7.32D-05  NBF=   351
 NBsUse=   351 1.00D-06 EigRej= -1.00D+00 NBFU=   351
 The nuclear repulsion energy is now       444.8349531096 hartrees.
 Initial guess from the checkpoint file:  "checkpoint.chk"
 B after Tr=     0.002640    0.024823    0.010976
         Rot=    0.999872   -0.015430   -0.000006   -0.004190 Ang=  -1.83 deg.
 ExpMin= 9.52D-02 ExpMax= 2.70D+04 ExpMxC= 9.22D+02 IAcc=2 IRadAn=         4 AccDes= 0.00D+00
 Harris functional with IExCor=  402 and IRadAn=       4 diagonalized for initial guess.
 HarFok:  IExCor=  402 AccDes= 0.00D+00 IRadAn=         4 IDoV= 1 UseB2=F ITyADJ=14
 ICtDFT=  3500011 ScaDFX=  1.000000  1.000000  1.000000  1.000000
 FoFCou: FMM=F IPFlag=           0 FMFlag=      100000 FMFlg1=           0
         NFxFlg=           0 DoJE=T BraDBF=F KetDBF=T FulRan=T
         wScrn=  0.000000 ICntrl=       500 IOpCl=  0 I1Cent=   200000004 NGrid=           0
         NMat0=    1 NMatS0=      1 NMatT0=    0 NMatD0=    1 NMtDS0=    0 NMtDT0=    0
 Symmetry not used in FoFCou.
 Requested convergence on RMS density matrix=1.00D-08 within 128 cycles.
 Requested convergence on MAX density matrix=1.00D-06.
 Requested convergence on             energy=1.00D-06.
 No special actions if energy rises.
 Integral accuracy reduced to 1.0D-05 until final iterations.
 Initial convergence to 1.0D-05 achieved.  Increase integral accuracy.
 SCF Done:  E(RB3LYP) =  -387.394688661     A.U. after   11 cycles
            NFock= 11  Conv=0.53D-08     -V/T= 2.0053
   1 Symmetry operations used in ECPInt.
 ECPInt:  NShTT=   10878 NPrTT=   32112 LenC2=   10563 LenP2D=   24707.
 LDataN:  DoStor=T MaxTD1= 7 Len=  274
 Calling FoFJK, ICntrl=      2127 FMM=F ISym2X=0 I1Cent= 0 IOpClX= 0 NMat=1 NMatS=1 NMatT=0.
 -------------------------------------------------------------------
 Center     Atomic                   Forces (Hartrees/Bohr)
 Number     Number              X              Y              Z
 -------------------------------------------------------------------
      1        6           0.000540779    0.000555834   -0.000231766
      2        6          -0.000509318   -0.001320243    0.000201970
      3        6           0.000042474    0.001199563   -0.000000462
      4        6          -0.000356020    0.000979507    0.000727254
      5        1           0.000028497    0.000265592   -0.000038224
      6        6          -0.000117667    0.000076524    0.000149643
      7        8          -0.001171533    0.000487579   -0.000007866
      8        1          -0.000121139   -0.000309971   -0.000055554
      9        1          -0.000063660   -0.000395475   -0.000176711
     10        6           0.001211838   -0.000617925    0.000151085
     11        6          -0.000020071   -0.000050872    0.000025296
     12        1           0.000194116   -0.000055660   -0.000371551
     13        1           0.000000508    0.000017379   -0.000022466
     14        1           0.000112571   -0.000072116   -0.000049713
     15        1          -0.000012911    0.000009292   -0.000082438
     16        1           0.000252856   -0.000287400   -0.000031196
     17        1          -0.000094838   -0.000216626   -0.000160946
     18        6          -0.000049112   -0.000330877   -0.000087989
     19        1          -0.000016313   -0.000108700    0.000007732
     20        1           0.000088902    0.000064751    0.000013540
     21        1           0.000060040    0.000109844    0.000040361
 -------------------------------------------------------------------
 Cartesian Forces:  Max     0.001320243 RMS     0.000403545
 -----------------------------------------------------------------------------------------------
                       Internal Coordinate Forces (Hartree/Bohr or radian)
  Cent   Atom   N1       Length/X         N2         Alpha/Y        N3         Beta/Z          J
 -----------------------------------------------------------------------------------------------
      1  C 
      2  C        1   0.000159(     1)
      3  C        1  -0.000916(     2)      2   0.005985(    21)
      4  C        1  -0.001219(     3)      2   0.005734(    22)      3   0.000600(    40)     0
      5  H        2  -0.000037(     4)      1  -0.000048(    23)      3  -0.000163(    41)     0
      6  C        2  -0.000019(     5)      1  -0.000130(    24)      5   0.000316(    42)     0
      7  O        3   0.000464(     6)      1  -0.003024(    25)      2   0.001599(    43)     0
      8  H        3   0.000204(     7)      1  -0.000328(    26)      7   0.000410(    44)     0
      9  H        3  -0.000375(     8)      1   0.000420(    27)      7   0.000196(    45)     0
     10  C        4   0.000108(     9)      1  -0.003368(    28)      2   0.002686(    46)     0
     11  C        4  -0.000186(    10)      1   0.000172(    29)     10  -0.000567(    47)     0
     12  H        4   0.000102(    11)      1   0.000089(    30)     10  -0.000810(    48)     0
     13  H        6   0.000012(    12)      2  -0.000041(    31)      1   0.000173(    49)     0
     14  H        6   0.000033(    13)      2   0.000119(    32)     13   0.000245(    50)     0
     15  H        6  -0.000047(    14)      2  -0.000094(    33)     13  -0.000102(    51)     0
     16  H       10  -0.000031(    15)      4   0.000037(    34)      1  -0.000985(    52)     0
     17  H       10  -0.000237(    16)      4   0.000175(    35)     16  -0.000265(    53)     0
     18  C       11  -0.000157(    17)      4  -0.000346(    36)      1  -0.000175(    54)     0
     19  H       11   0.000057(    18)      4  -0.000121(    37)     18  -0.000136(    55)     0
     20  H       18   0.000041(    19)     11  -0.000060(    38)      4   0.000051(    56)     0
     21  H       18   0.000005(    20)     11   0.000079(    39)     20   0.000220(    57)     0
 -----------------------------------------------------------------------------------------------
 Internal  Forces:  Max     0.005985256 RMS     0.001359268

 GradGradGradGradGradGradGradGradGradGradGradGradGradGradGradGradGradGrad
 Berny optimization.
 Search for a local minimum.
 Step number   3 out of a maximum of   67
 All quantities printed in internal units (Hartrees-Bohrs-Radians)
 Update second derivatives using D2CorN and points    1    2    3
 DE= -1.39D-05 DEPred=-3.54D-05 R= 3.94D-01
 Trust test= 3.94D-01 RLast= 1.09D-01 DXMaxT set to 1.00D-01
 ITU=  0  1  0
     Eigenvalues ---    0.00720   0.02920   0.03295   0.04033   0.05104
     Eigenvalues ---    0.06522   0.08311   0.08806   0.10149   0.11546
     Eigenvalues ---    0.13595   0.13984   0.15640   0.16485   0.17363
     Eigenvalues ---    0.19776   0.20150   0.20573   0.21659   0.22703
     Eigenvalues ---    0.23652   0.24127   0.24563   0.26210   0.28373
     Eigenvalues ---    0.29875   0.32245   0.32514   0.32561   0.32866
     Eigenvalues ---    0.33706   0.33808   0.33861   0.34343   0.34357
     Eigenvalues ---    0.34493   0.34739   0.34785   0.34842   0.35069
     Eigenvalues ---    0.35291   0.35333   0.35607   0.35698   0.38670
     Eigenvalues ---    0.39481   0.42084   0.42981   0.47621   0.52809
     Eigenvalues ---    0.53695   0.54030   0.60026   0.60061   1.35036
     Eigenvalues ---    1.60013  20.44367
 RFO step:  Lambda=-1.76113072D-05 EMin= 7.19542967D-03
 Quartic linear search produced a step of -0.35441.
 Variable       Old X    -DE/DX   Delta X   Delta X   Delta X     New X
                                 (Linear)    (Quad)   (Total)
    R2        2.50915   0.00016  -0.00002   0.00019   0.00018   2.50933
    R3        2.86251  -0.00092   0.00061  -0.00032   0.00029   2.86280
    R4        2.87976  -0.00122   0.00070  -0.00053   0.00017   2.87993
    R5        2.05100  -0.00004  -0.00002  -0.00007  -0.00010   2.05091
    R6        2.83100  -0.00002   0.00009  -0.00009  -0.00001   2.83099
    R7        2.70622   0.00046  -0.00169   0.00046  -0.00123   2.70499
    R8        2.06542   0.00020  -0.00015   0.00049   0.00034   2.06575
    R9        2.07626  -0.00037   0.00024  -0.00088  -0.00063   2.07562
   R10        2.88999   0.00011   0.00075  -0.00043   0.00032   2.89031
   R11        2.83157  -0.00019  -0.00020  -0.00032  -0.00052   2.83105
   R12        2.07796   0.00010   0.00002   0.00020   0.00022   2.07819
   R13        2.06063   0.00001   0.00011  -0.00001   0.00009   2.06072
   R14        2.06700   0.00003  -0.00002   0.00006   0.00004   2.06704
   R15        2.06723  -0.00005  -0.00002  -0.00009  -0.00011   2.06713
   R16        2.06007  -0.00003  -0.00011   0.00001  -0.00011   2.05996
   R17        2.07778  -0.00024  -0.00002  -0.00048  -0.00049   2.07729
   R18        2.50923  -0.00016  -0.00009  -0.00015  -0.00023   2.50900
   R19        2.05147   0.00006   0.00001   0.00010   0.00011   2.05158
   R20        2.04763   0.00004   0.00005   0.00007   0.00012   2.04775
   R21        2.04542   0.00001   0.00003  -0.00001   0.00002   2.04544
    A3        2.20487   0.00599   0.00026   0.00036   0.00062   2.20549
    A4        2.22755   0.00573  -0.00061  -0.00016  -0.00077   2.22678
    A5        2.07140  -0.00005   0.00033  -0.00015   0.00018   2.07158
    A6        2.19899  -0.00013  -0.00070   0.00011  -0.00058   2.19840
    A7        1.85911  -0.00302  -0.00016   0.00045   0.00028   1.85940
    A8        1.97875  -0.00033   0.00011  -0.00184  -0.00173   1.97702
    A9        1.93981   0.00042  -0.00038   0.00220   0.00182   1.94163
   A10        1.75702  -0.00337   0.00142   0.00076   0.00218   1.75920
   A11        2.02710   0.00017  -0.00014   0.00138   0.00124   2.02834
   A12        1.87175   0.00009  -0.00049  -0.00076  -0.00125   1.87050
   A13        1.96801  -0.00004  -0.00057  -0.00012  -0.00069   1.96731
   A14        1.93067   0.00012   0.00100   0.00012   0.00112   1.93179
   A15        1.93590  -0.00009  -0.00024  -0.00016  -0.00039   1.93550
   A16        1.98990   0.00004  -0.00058  -0.00049  -0.00107   1.98883
   A17        1.92715   0.00018   0.00045   0.00076   0.00121   1.92836
   A18        2.21022  -0.00035  -0.00046  -0.00044  -0.00090   2.20932
   A19        2.00870  -0.00012   0.00013  -0.00003   0.00010   2.00879
   A20        2.14073  -0.00006  -0.00013  -0.00030  -0.00043   2.14030
   A21        2.10975   0.00008   0.00029   0.00022   0.00051   2.11026
    D4       -3.08599   0.00060  -0.00824   0.00351  -0.00473  -3.09072
    D5        3.11449  -0.00016   0.00127  -0.00241  -0.00115   3.11334
    D6       -3.17365   0.00032   0.00493  -0.00020   0.00473  -3.16893
    D7        3.28456   0.00160  -0.02769   0.00948  -0.01822   3.26634
    D8       -2.06617   0.00041   0.00030   0.00273   0.00303  -2.06315
    D9        2.09011   0.00020   0.00040   0.00224   0.00264   2.09275
   D10        2.65930   0.00269   0.02312  -0.00470   0.01842   2.67771
   D11       -2.22908  -0.00057  -0.00168  -0.00331  -0.00499  -2.23407
   D12        1.95715  -0.00081  -0.00171  -0.00350  -0.00521   1.95193
   D13        0.07679   0.00017  -0.00479   0.00421  -0.00058   0.07621
   D14       -2.10685   0.00024  -0.00035   0.00034  -0.00001  -2.10686
   D15        2.12195  -0.00010  -0.00147  -0.00004  -0.00151   2.12043
   D16        2.69303  -0.00098  -0.00666  -0.00605  -0.01271   2.68032
   D17        2.14769  -0.00027  -0.00014   0.00041   0.00027   2.14796
   D18        2.19904  -0.00018   0.00234  -0.00239  -0.00005   2.19899
   D19        3.10463  -0.00014   0.00037  -0.00031   0.00006   3.10470
   D20       -0.01384   0.00005  -0.00070  -0.00041  -0.00112  -0.01495
   D21        3.12641   0.00022   0.00209   0.00088   0.00296   3.12938
         Item               Value     Threshold  Converged?
 Maximum Force            0.005985     0.000450     NO 
 RMS     Force            0.001359     0.000300     NO 
 Maximum Displacement     0.018415     0.001800     NO 
 RMS     Displacement     0.004155     0.001200     NO 
 Predicted change in Energy=-1.875619D-05
 GradGradGradGradGradGradGradGradGradGradGradGradGradGradGradGradGradGrad

 ---------------------------------------------------------------------------------------------------
                            Z-MATRIX (ANGSTROMS AND DEGREES)
   CD    Cent   Atom    N1       Length/X        N2       Alpha/Y        N3        Beta/Z          J
 ---------------------------------------------------------------------------------------------------
      1      1  C 
      2      2  C        1   1.327881(     1)
      3      3  C        1   1.514930(     2)      2  126.365(    21)
      4      4  C        1   1.523993(     3)      2  127.585(    22)      3 -177.085(    40)      0
      5      5  H        2   1.085293(     4)      1  118.693(    23)      3  178.381(    41)      0
      6      6  C        2   1.498096(     5)      1  125.959(    24)      5 -181.566(    42)      0
      7      7  O        3   1.431418(     6)      1  106.536(    25)      2  187.148(    43)      0
      8      8  H        3   1.093150(     7)      1  113.275(    26)      7 -118.210(    44)      0
      9      9  H        3   1.098373(     8)      1  111.247(    27)      7  119.905(    45)      0
     10     10  C        4   1.529488(     9)      1  100.794(    28)      2  153.422(    46)      0
     11     11  C        4   1.498128(    10)      1  116.215(    29)     10 -128.003(    47)      0
     12     12  H        4   1.099728(    11)      1  107.172(    30)     10  111.838(    48)      0
     13     13  H        6   1.090487(    12)      2  112.719(    31)      1    4.366(    49)      0
     14     14  H        6   1.093828(    13)      2  110.683(    32)     13 -120.714(    50)      0
     15     15  H        6   1.093876(    14)      2  110.896(    33)     13  121.492(    51)      0
     16     16  H       10   1.090083(    15)      4  113.952(    34)      1  153.571(    52)      0
     17     17  H       10   1.099253(    16)      4  110.487(    35)     16  123.069(    53)      0
     18     18  C       11   1.327707(    17)      4  126.585(    36)      1  125.993(    54)      0
     19     19  H       11   1.085649(    18)      4  115.095(    37)     18  177.886(    55)      0
     20     20  H       18   1.083623(    19)     11  122.630(    38)      4   -0.857(    56)      0
     21     21  H       18   1.082400(    20)     11  120.909(    39)     20  179.300(    57)      0
 ---------------------------------------------------------------------------------------------------
                         Z-Matrix orientation:                         
 ---------------------------------------------------------------------
 Center     Atomic      Atomic             Coordinates (Angstroms)
 Number     Number       Type             X           Y           Z
 ---------------------------------------------------------------------
      1          6           0        0.000000    0.000000    0.000000
      2          6           0        0.000000    0.000000    1.327881
      3          6           0        1.219904    0.000000   -0.898247
      4          6           0       -1.206120    0.061405   -0.929547
      5          1           0       -0.951648    0.026894    1.848941
      6          6           0        1.210739   -0.067369    2.207577
      7          8           0        0.740658    0.170741   -2.236204
      8          1           0        1.781715   -0.937100   -0.863765
      9          1           0        1.906176    0.817000   -0.637544
     10          6           0       -0.580156    0.702624   -2.169039
     11          6           0       -2.440010    0.701869   -0.371236
     12          1           0       -1.463423   -0.973963   -1.196398
     13          1           0        2.143402   -0.042565    1.643054
     14          1           0        1.205749   -0.985530    2.802064
     15          1           0        1.221096    0.761578    2.921233
     16          1           0       -1.086706    0.451251   -3.100972
     17          1           0       -0.549734    1.796293   -2.062640
     18          6           0       -3.125234    1.703010   -0.910671
     19          1           0       -2.808943    0.264064    0.551178
     20          1           0       -2.832666    2.177451   -1.839944
     21          1           0       -4.023057    2.080377   -0.438338
 ---------------------------------------------------------------------
                    Distance matrix (angstroms):
                    1          2          3          4          5
     1  C    0.000000
     2  C    1.327881   0.000000
     3  C    1.514930   2.538466   0.000000
     4  C    1.523993   2.560171   2.427003   0.000000
     5  H    2.079649   1.085293   3.501914   2.790330   0.000000
     6  C    2.518694   1.498096   3.106567   3.962238   2.193951
     7  O    2.361850   3.644232   1.431418   2.347179   4.424138
     8  H    2.190606   2.975899   1.093150   3.150952   3.969802
     9  H    2.169668   2.857252   1.098373   3.215987   3.869629
    10  C    2.352657   3.613684   2.312749   1.529488   4.091306
    11  C    2.565947   3.055040   3.763685   1.498128   2.756810
    12  H    2.126400   3.076068   2.870146   1.099728   3.246185
    13  H    2.701039   2.166869   2.704232   4.224735   3.102668
    14  H    3.205723   2.144369   3.829330   4.564877   2.566673
    15  H    3.256482   2.147055   3.894666   4.605445   2.531874
    16  H    3.316713   4.582499   3.221192   2.209373   4.969905
    17  H    2.789867   3.876146   2.777426   2.173609   4.311934
    18  C    3.673779   4.204574   4.666971   2.525514   3.892210
    19  H    2.874663   2.926288   4.289775   2.191497   2.278154
    20  H    4.018792   4.774977   4.695893   2.819951   4.665940
    21  H    4.550285   4.861326   5.659339   3.500381   4.345341
                    6          7          8          9         10
     6  C    0.000000
     7  O    4.474914   0.000000
     8  H    3.242774   2.048096   0.000000
     9  H    3.059486   2.081296   1.773001   0.000000
    10  C    4.791134   1.425468   3.157668   2.922397   0.000000
    11  C    4.535413   3.725164   4.555410   4.355859   2.586726
    12  H    4.422680   2.692493   3.262349   3.856690   2.130056
    13  H    1.090487   4.130597   2.686103   2.448725   4.743957
    14  H    1.093828   5.190126   3.711116   3.945962   5.545375
    15  H    1.093876   5.213354   4.186407   3.624541   5.399894
    16  H    5.807574   2.041022   3.893643   3.893532   1.090083
    17  H    4.980687   2.082703   3.787398   3.003565   1.099253
    18  C    5.626577   4.364631   5.572300   5.116121   3.010263
    19  H    4.360201   4.514186   4.951666   4.893991   3.543926
    20  H    6.145793   4.117348   5.652068   5.074763   2.712420
    21  H    6.245502   5.438015   6.556030   6.065608   4.092322
                   11         12         13         14         15
    11  C    0.000000
    12  H    2.107849   0.000000
    13  H    5.061543   4.683927   0.000000
    14  H    5.119444   4.807526   1.763996   0.000000
    15  H    4.924186   5.212832   1.769474   1.751235   0.000000
    16  H    3.057073   2.408434   5.760489   6.493499   6.456718
    17  H    2.762563   3.042946   4.936248   5.872444   5.389384
    18  C    1.327707   3.163770   6.109588   6.306351   5.870295
    19  H    1.085649   2.529260   5.080546   4.769248   4.701691
    20  H    2.118637   3.495768   6.466916   6.918200   6.411434
    21  H    2.100196   4.056522   6.845750   6.873166   6.366089
                   16         17         18         19         20
    16  H    0.000000
    17  H    1.782024   0.000000
    18  C    3.243442   2.822930   0.000000
    19  H    4.042195   3.779391   2.075478   0.000000
    20  H    2.760133   2.325222   1.083623   3.062528   0.000000
    21  H    4.285537   3.844872   1.082400   2.398376   1.841454
                   21
    21  H    0.000000
 Symmetry turned off by external request.
 Stoichiometry    C8H12O
 Framework group  C1[X(C8H12O)]
 Deg. of freedom    57
 Full point group                 C1      NOp   1
[...]
 74,-0.00021536,0.00019383,-0.00019915,0.04490600,-0.08001318,-0.000108
 44,0.00109246,0.00014789,0.00271123,-0.00186702,0.00062711,-0.00420312
 ,0.01077080,0.54874313,-0.01037834,0.01748463,-0.04022567,-0.00235862,
 0.00064922,-0.00039134,-0.03627472,0.01599910,-0.00790807,0.01834645,0
 .04091851,-0.13036141,0.00012134,0.00004697,0.00017403,-0.00025945,-0.
 00112771,-0.00030650,0.03284577,-0.01348787,-0.08810000,-0.00149867,0.
 00030940,-0.00485577,-0.00092679,0.00046970,-0.00197107,0.09591559,0.0
 2725840,0.58036483,-0.02839175,0.01172043,0.00179347,0.00140672,0.0001
 2434,0.00123844,-0.00170693,0.00006381,-0.00011670,-0.16149755,0.04240
 380,0.04922884,-0.00012490,0.00008138,0.00053666,-0.00064307,-0.000635
 25,0.00106183,0.00021358,0.00104705,-0.00041275,-0.00028780,0.00009545
 ,0.00027436,-0.00002018,0.00012164,0.00006873,-0.01185866,0.00051195,0
 .00725586,0.49598574,0.00525858,-0.00301012,0.00247696,-0.00027861,0.0
 0065644,-0.00076105,-0.00070128,0.00014428,0.00118857,0.04420313,-0.09
 901962,-0.01093932,-0.00006187,0.00009185,0.00027870,-0.00011375,0.000
 03518,-0.00001450,-0.00619404,-0.00008408,0.00310288,-0.00040828,-0.00
 003129,0.00008503,-0.00025813,0.00001699,-0.00005692,-0.00950736,0.009
 83444,-0.00049205,-0.23293949,0.55792166,-0.01504601,0.00989537,0.0152
 7752,-0.00103717,0.00018018,-0.00037644,-0.00410085,-0.00024630,-0.005
 87467,0.04607889,-0.00965186,-0.10971535,-0.00115724,0.00045305,-0.001
 01041,0.00037645,-0.00047053,-0.00048700,0.00638293,0.00130251,-0.0028
 5228,-0.00011515,0.00000785,0.00034795,-0.00067488,-0.00001502,0.00098
 283,0.02031026,-0.01354828,-0.00776389,-0.06149319,-0.25070003,0.51813
 583,-0.00778372,-0.02215023,-0.01173970,-0.00076441,-0.00011769,0.0011
 1099,-0.00009634,0.00076333,-0.00060107,-0.05482207,-0.04952122,-0.009
 31127,-0.00002635,-0.00103931,-0.00007489,0.00014366,0.00224208,-0.000
 63985,0.00103909,0.00074183,0.00072376,-0.00037797,-0.00014849,0.00011
 721,0.00020779,0.00015558,-0.00017077,-0.00270701,-0.01184170,-0.00126
 475,0.00311680,0.02912558,0.00705598,0.06548976,-0.00249017,0.00286850
 ,-0.00266935,0.00004052,0.00085698,0.00135816,-0.00061104,-0.00038365,
 -0.00040059,-0.04973116,-0.25633185,-0.05606405,0.00004473,0.00006473,
 0.00000806,-0.00014719,-0.00034032,-0.00022594,0.00027531,0.00214666,-
 0.00042792,-0.00011143,-0.00002917,-0.00007295,-0.00011569,-0.00007055
 ,0.00011652,-0.00348130,-0.01831140,-0.00136931,0.00264495,-0.01641927
 ,-0.00410894,0.05272639,0.28359518,-0.01032061,-0.01970042,-0.01197143
 ,-0.00155163,0.00011108,0.00125200,0.00022296,0.00033874,-0.00016471,-
 0.00923117,-0.06294249,-0.05775002,-0.00002994,-0.00134485,-0.00022209
 ,0.00012366,0.00239417,-0.00055747,-0.00175314,-0.00148650,0.00097279,
 -0.00021252,-0.00007668,0.00021191,0.00000557,0.00009751,-0.00009006,0
 .00753352,0.02965670,0.00303152,-0.00124704,-0.01278597,-0.00203812,0.
 01315166,0.06263539,0.06961676,0.00121610,0.00042460,0.00168482,-0.023
 65143,-0.00109575,0.01497813,-0.00032669,-0.00051299,-0.00051171,0.000
 04511,0.00000885,-0.00020182,-0.00263323,-0.00015379,-0.00379712,-0.23
 503106,-0.01122525,0.11524904,0.00106617,0.00000854,0.00034909,0.00027
 161,-0.00034451,-0.00036880,0.00063884,0.00058088,-0.00018830,-0.00055
 454,0.00012492,0.00031995,-0.00010192,-0.00006273,0.00007790,-0.000106
 21,0.00002134,-0.00005758,0.25824792,-0.00020717,0.00008037,-0.0001608
 5,0.00193557,-0.00094604,-0.00066627,0.00015717,0.00033450,0.00019453,
 0.00003569,-0.00015784,0.00000515,0.00038602,0.00135425,0.00029607,-0.
 01152119,-0.04762964,0.00590279,-0.00001125,-0.00020853,-0.00014917,0.
 00000729,-0.00017119,-0.00051412,-0.00015172,-0.00008563,0.00058979,0.
 00000929,0.00002071,0.00006601,0.00003568,-0.00001570,-0.00000089,-0.0
 0006853,0.00000503,-0.00005216,0.01210074,0.04541933,0.00053112,-0.000
 21075,0.00130028,-0.01830371,-0.00111273,0.01300086,0.00003370,-0.0003
 1444,-0.00126895,0.00005188,0.00004661,0.00014941,-0.00354947,0.000642
 84,-0.00183679,0.11809952,0.00604375,-0.12181509,-0.00012629,0.0000179
 5,0.00041857,0.00012792,0.00014717,-0.00045951,0.00006591,0.00012420,-
 0.00079897,-0.00015806,0.00006417,-0.00002557,-0.00017302,0.00001314,0
 .00005912,0.00001711,0.00001085,0.00001811,-0.12733044,-0.00771325,0.1
 3173388,-0.00281596,0.00046920,0.00035408,-0.00012503,0.02355511,-0.01
 737604,-0.00008941,0.00080606,0.00016798,-0.00019447,-0.00238947,-0.00
 041062,0.00043786,-0.00068583,0.00077310,-0.04632625,0.00131196,0.0008
 2869,0.00033343,0.00006309,0.00018537,0.00009312,-0.00019202,0.0000643
 6,0.00038068,0.00025832,-0.00054162,-0.00004409,-0.00003577,0.00032989
 ,0.00039535,-0.00001917,-0.00018400,-0.00058875,0.00009489,-0.00058883
 ,0.00013502,-0.02429436,0.01367356,0.04891549,0.00029647,0.00004159,-0
 .00162628,0.00163351,0.00259879,0.00079054,-0.00030713,0.00007434,0.00
 005080,0.00003360,-0.00016153,0.00007193,0.00048511,0.00024140,0.00030
 528,-0.00090671,-0.23202053,0.11509591,0.00001071,-0.00002976,0.000020
 53,0.00007525,-0.00011058,0.00005094,0.00004088,-0.00004358,0.00002903
 ,0.00005325,-0.00001984,0.00002463,-0.00005350,-0.00000923,0.00005528,
 -0.00004865,-0.00008610,-0.00002755,-0.00066926,-0.00016802,-0.0005029
 2,-0.00013097,0.25238374,-0.00248211,0.00045054,0.00107412,-0.00276633
 ,0.01586944,-0.01549066,-0.00023584,0.00083406,0.00017972,-0.00023421,
 -0.00190330,-0.00042427,-0.00006599,-0.00045377,0.00051660,0.00273884,
 0.11618616,-0.11187424,0.00000392,-0.00005896,-0.00019059,-0.00003904,
 0.00006798,-0.00017838,0.00012421,-0.00008036,0.00033709,0.00013380,-0
 .00006933,0.00013213,0.00023997,-0.00007978,-0.00000752,-0.00035448,0.
 00011401,-0.00040666,0.00009207,0.01444445,-0.00934018,0.00284308,-0.1
 2659042,0.12407285,-0.00310399,0.00030569,-0.00068266,0.00092308,-0.02
 103867,-0.02021314,-0.00064182,-0.00102225,0.00029502,0.00040640,0.001
 73871,-0.00073420,0.00079578,0.00034675,0.00083221,-0.04853267,0.00248
 835,0.00431763,0.00035952,-0.00000510,0.00001330,0.00019749,-0.0001273
 0,-0.00052862,0.00025858,0.00026987,0.00027792,-0.00070341,-0.00001363
 ,-0.00003399,0.00025179,-0.00006666,-0.00027835,0.00007016,-0.00002039
 ,0.00014708,0.00038465,0.02159682,0.01687111,-0.00034826,-0.00052935,0
 .00006682,0.04975658,0.00000690,0.00008893,0.00087574,-0.00033673,0.00
 408056,0.00272093,0.00002038,-0.00001882,0.00017438,0.00010305,-0.0003
 8947,0.00013045,-0.00054780,0.00031776,-0.00030390,0.00295962,-0.18818
 010,-0.12835885,-0.00003212,0.00004655,-0.00010035,-0.00001814,-0.0000
 5505,-0.00004332,0.00001608,-0.00003600,0.00003015,0.00003787,-0.00002
 971,0.00006711,0.00005483,-0.00001721,-0.00006382,-0.00010819,-0.00000
 527,-0.00009077,0.00080314,0.00219566,0.00276809,0.00109106,-0.0226718
 9,-0.01885850,-0.00402152,0.20466856,-0.00325320,-0.00061843,0.0012425
 2,-0.00217015,-0.01289318,-0.01768624,0.00009260,-0.00057020,-0.000017
 50,0.00025226,0.00163885,-0.00067231,-0.00004757,0.00066228,0.00074710
 ,0.00594868,-0.12905994,-0.15539180,0.00000433,0.00000503,-0.00001953,
 0.00012507,0.00002545,0.00015354,-0.00018236,-0.00016421,-0.00023963,-
 0.00047538,-0.00013795,-0.00018016,0.00009433,-0.00009202,-0.00018669,
 0.00021161,-0.00001332,0.00024777,-0.00004485,-0.01227071,-0.01103241,
 -0.00017582,0.01223461,0.01157008,-0.00030424,0.14102678,0.17157625,-0
 .00275354,-0.00112712,0.00287161,0.00114507,-0.00010848,0.00009531,-0.
 00450413,-0.00076811,0.00283184,0.00964108,0.00391457,0.01231078,0.000
 00495,-0.00017941,-0.00008289,-0.00015523,0.00030919,0.00021496,-0.025
 43850,0.00155359,-0.03024130,-0.00035023,0.00004328,-0.00078818,-0.000
 48991,0.00002219,-0.00130143,-0.09468471,-0.02940047,-0.09390660,0.000
 55844,-0.00042603,-0.00009370,0.00038998,0.00054259,-0.00081064,0.0001
 3151,-0.00000068,0.00000556,0.00001173,-0.00000184,-0.00002508,0.00012
 729,-0.00000393,0.00005503,0.11477982,0.00020781,-0.00043559,0.0020148
 1,0.00066900,0.00014235,0.00048110,0.00281231,-0.00027384,0.00135071,0
 .00595271,0.00285775,0.01228958,-0.00004416,-0.00000756,0.00002230,-0.
 00000681,0.00006252,0.00014609,0.00872236,0.00361398,0.01344632,0.0002
 7986,-0.00003898,0.00036077,0.00043667,-0.00024204,0.00057923,-0.03314
 278,-0.06928593,-0.06221582,0.00030096,-0.00016742,0.00015052,0.000700
 25,0.00100337,-0.00009758,-0.00005836,-0.00001102,-0.00001215,-0.00000
 662,-0.00000329,0.00003479,0.00001325,-0.00000603,0.00008080,0.0274341
 2,0.07005138,0.00190180,0.00221817,-0.00336315,-0.00105185,0.00026760,
 -0.00004028,0.00129140,-0.00058989,0.00056419,-0.01123175,-0.00662823,
 -0.01704625,0.00004603,0.00019563,-0.00001465,0.00015518,-0.00049076,-
 0.00034091,0.00011094,0.00277286,0.00533068,-0.00002672,-0.00005151,0.
 00007047,-0.00018920,0.00000874,0.00002708,-0.10093471,-0.05589059,-0.
 24430550,-0.00062593,0.00092714,-0.00036201,-0.00010958,0.00000785,0.0
 0145806,-0.00002860,0.00000595,0.00002800,-0.00003456,0.00002676,0.000
 00548,-0.00017328,-0.00000184,-0.00014372,0.11131540,0.05900146,0.2600
 7712,-0.00043736,0.00016595,-0.00076063,0.00051239,0.00019037,0.000031
 28,0.00195795,0.00153475,0.00423200,0.00005881,-0.01407944,-0.00200761
 ,0.00001803,0.00006333,-0.00006932,-0.00004571,-0.00011888,0.00007646,
 -0.01490399,0.04058750,0.00360815,-0.00052092,-0.00004872,-0.00113817,
 -0.00032528,-0.00067966,-0.00012576,-0.04729700,-0.01810540,-0.0056097
 2,0.00076933,-0.00020554,-0.00049864,-0.00058094,-0.00107818,0.0031475
 6,0.00003184,0.00001222,0.00000988,0.00002497,-0.00000189,0.00002361,0
 .00001542,-0.00000130,-0.00001561,0.00172567,-0.01389832,-0.00121582,0
 .06070177,-0.00024286,0.00064274,-0.00066030,0.00010670,0.00027961,0.0
 0034584,-0.00007090,-0.00027559,-0.00217717,-0.00369721,-0.01586093,-0
 .00098160,-0.00003043,-0.00001324,0.00012344,0.00000742,-0.00008502,0.
 00006675,0.01690544,-0.00900207,-0.00122727,0.00032236,-0.00015323,0.0
 0062922,0.00038752,-0.00023878,0.00088349,-0.01859955,-0.27859132,-0.0
 2630422,0.00151478,-0.00015177,-0.00061885,-0.00035411,-0.00038473,0.0
 0296835,-0.00004515,-0.00001831,-0.00003245,0.00002854,-0.00000671,0.0
 0003002,0.00002032,0.00001144,0.00006402,-0.00204739,-0.00751320,-0.00
 121572,0.00546164,0.31013325,0.00120984,0.00004014,0.00165697,-0.00017
 524,-0.00024080,-0.00025758,0.00019954,0.00048400,-0.00027512,0.002864
 21,0.02620326,0.00261826,0.00000139,-0.00000081,0.00003706,0.00003349,
 0.00001968,0.00001175,0.00257211,-0.00119370,0.00420164,-0.00009337,-0
 .00018901,0.00013599,0.00013465,-0.00018377,0.00040313,-0.00568282,-0.
 02836286,-0.05984752,-0.00097265,0.00034064,0.00100565,0.00153800,0.00
 265081,-0.00362048,-0.00002243,0.00000501,-0.00000508,-0.00000344,0.00
 000385,0.00000077,0.00000510,0.00001265,-0.00001211,-0.00231813,-0.027
 44440,-0.00199263,0.00018939,0.02863046,0.05554446,0.00001917,0.001423
 04,0.00355027,-0.00031506,-0.00014419,0.00016925,-0.00045965,-0.000043
 35,-0.00081920,-0.01484538,0.02500651,-0.00945302,0.00002637,0.0000509
 8,-0.00036171,0.00021645,-0.00005073,-0.00040904,0.00015065,-0.0000873
 9,0.00011969,-0.00006511,0.00003654,0.00002089,-0.00022713,-0.00003147
 ,0.00017400,-0.00038443,0.00031299,-0.00205458,-0.21332626,0.19478515,
 -0.07432217,-0.00235941,0.00069927,0.00111502,0.00005442,0.00000107,0.
 00006698,-0.00012604,0.00002960,-0.00004535,-0.00012717,-0.00002806,-0
 .00008990,0.00007841,-0.00006637,0.00034114,-0.00066104,0.00046201,0.0
 0046967,0.54272507,-0.00204786,0.00075012,-0.00307008,0.00005866,0.000
 39791,0.00033555,0.00023088,-0.00021459,0.00042359,0.01465870,-0.00904
 849,0.00386235,-0.00014907,-0.00023106,-0.00000949,0.00001498,-0.00003
 388,0.00018732,-0.00012439,-0.00012342,0.00051832,0.00013626,0.0000253
 7,0.00002119,0.00017216,0.00000698,-0.00006453,-0.00050803,-0.00014254
 ,0.00031033,0.19097462,-0.33647052,0.15506382,0.00028220,0.00125455,-0
 .00003699,-0.00000218,-0.00000074,-0.00000947,0.00005677,-0.00000025,0
 .00003856,0.00008760,-0.00000888,0.00008358,0.00030854,0.00065501,0.00
 000280,-0.00010533,0.00016944,-0.00067512,-0.26944208,0.52797352,0.001
 49944,-0.00144834,-0.00238156,0.00009227,0.00023459,-0.00021967,0.0004
 6445,0.00029713,0.00070702,0.00682121,-0.00759340,0.01220850,-0.000029
 93,-0.00006137,0.00048477,-0.00022228,-0.00002771,0.00038342,-0.000298
 30,0.00075289,-0.00038637,-0.00005026,-0.00001538,-0.00005201,0.000174
 75,0.00000433,-0.00016792,0.00036300,-0.00255166,0.00078470,-0.0710584
 7,0.15212010,-0.16484555,0.00146629,-0.00178737,-0.00079299,-0.0000930
 0,0.00000429,-0.00007092,0.00008377,-0.00000587,0.00001842,0.00007717,
 0.00000812,0.00003616,-0.00015580,-0.00030849,-0.00002816,0.00027044,0
 .00069809,0.00053087,-0.10964056,-0.24440151,0.51614175,0.00176794,-0.
 00043656,0.00012526,-0.00078913,0.00004429,0.00051765,0.00049124,-0.00
 018506,0.00100995,-0.00781712,-0.01187940,0.02250165,-0.00064319,0.000
 11661,-0.00123051,0.00026382,0.00004873,-0.00054742,-0.00237007,-0.000
 19209,0.00079100,0.00000529,0.00003123,-0.00015517,0.00000282,-0.00002
 568,-0.00013610,-0.00151543,0.00435649,-0.00054901,-0.08324538,-0.0355
 7451,0.08448156,0.00062177,0.00044839,-0.00003890,0.00019721,-0.000018
 65,0.00009600,-0.00005447,-0.00001019,-0.00001511,-0.00006019,0.000010
 36,-0.00000524,-0.00016739,-0.00015925,0.00040617,0.00008896,-0.000222
 47,-0.00030611,0.00885493,0.01048456,-0.01471570,0.08357458,0.00002422
 ,0.00017441,0.00028950,0.00001229,-0.00017167,0.00041493,-0.00008320,0
 .00006255,-0.00052288,0.00527893,0.00789663,-0.01152509,0.00025068,0.0
 0035664,-0.00004523,0.00006888,-0.00001733,-0.00011403,0.00136320,0.00
 019862,-0.00044350,0.00004754,-0.00002236,0.00002558,0.00000351,0.0000
 1093,0.00005296,0.00184840,-0.00099793,0.00097898,-0.03358704,-0.10003
 545,0.10044764,-0.00103864,0.00067266,0.00037307,0.00004572,0.00000179
 ,0.00001404,0.00000481,0.00000049,0.00001498,-0.00003395,-0.00000013,-
 0.00001622,-0.00024800,-0.00012494,0.00001141,0.00012954,0.00021007,-0
 .00015197,-0.00700948,-0.00762154,0.02417349,0.02973886,0.09994328,-0.
 00020371,-0.00023249,-0.00078255,-0.00044250,0.00009685,-0.00005551,-0
 .00017141,0.00004476,-0.00049624,0.00532906,0.00569165,-0.00848977,-0.
 00106164,0.00002928,0.00016994,-0.00014689,0.00006329,0.00023679,0.001
 33948,0.00014136,-0.00035454,0.00004977,-0.00002596,0.00004941,0.00003
 750,0.00002577,0.00005609,0.00026768,-0.00173479,0.00201083,0.08125683
 ,0.10242584,-0.24096411,-0.00019410,-0.00012663,0.00033463,-0.00007781
 ,0.00000831,-0.00005624,0.00002567,-0.00000297,0.00001085,0.00004449,0
 .00000621,0.00001931,-0.00011433,0.00000525,-0.00005847,-0.00001319,0.
 00010526,-0.00009438,0.00598190,0.00767083,-0.00802796,-0.09096876,-0.
 11602837,0.25390465,-0.00033308,0.00022188,0.00036903,-0.00003432,-0.0
 0004403,-0.00002992,-0.00027024,0.00020457,-0.00034790,-0.00171284,-0.
 00314447,-0.00248276,0.00000585,0.00004283,0.00000607,-0.00000285,-0.0
 0003526,0.00001484,0.00050236,-0.00032348,-0.00016139,-0.00006367,-0.0
 0002856,0.00005515,-0.00000335,0.00002572,0.00003878,-0.00103708,0.001
 11386,0.00033681,0.00991532,0.00840155,-0.01447602,0.00065231,-0.00053
 694,-0.00002917,-0.00000555,0.00000336,-0.00000437,0.00000907,-0.00000
 258,0.00000944,-0.00000380,0.00000411,-0.00000517,-0.00004861,-0.00015
 068,0.00002751,-0.00123474,0.00007798,0.00037634,-0.07298569,-0.027823
 71,0.07334144,0.00228505,0.00636289,0.00194339,0.06751923,-0.00029617,
 0.00051109,0.00046982,-0.00011950,-0.00003893,0.00017405,-0.00016296,0
 .00002242,0.00025511,-0.00472623,-0.00214248,-0.00262275,0.00005333,-0
 .00000781,-0.00023194,0.00008086,-0.00003483,-0.00014951,-0.00020836,0
 .00035933,-0.00052554,-0.00008579,-0.00000111,-0.00004968,-0.00002499,
 -0.00000372,-0.00006307,0.00060603,-0.00055196,0.00002470,-0.00692848,
 -0.00732287,0.02318007,0.00074398,-0.00041823,-0.00015514,0.00005806,0
 .00000432,0.00003274,-0.00001525,0.00000128,0.00000277,-0.00002945,-0.
 00000109,-0.00001809,0.00019062,-0.00022816,-0.00047163,0.00001365,0.0
 0050239,0.00007271,-0.02558880,-0.10367454,0.11061313,0.00664871,0.002
 22966,0.00534372,0.02700333,0.10458812,-0.00032210,0.00029315,0.000434
 99,-0.00000436,-0.00008746,-0.00001734,-0.00019518,0.00007927,-0.00030
 913,-0.00172254,-0.00338596,-0.00203001,0.00002331,0.00001764,0.000025
 95,0.00001202,-0.00001507,0.00000543,0.00015436,-0.00064991,0.00032570
 ,-0.00002309,-0.00002911,0.00009189,-0.00004417,0.00000320,0.00004163,
 0.00046557,0.00085413,-0.00001280,0.00572065,0.00697688,-0.00800543,0.
 00048160,-0.00025855,-0.00005193,-0.00002102,0.00000782,0.00000852,-0.
 00000278,-0.00000201,0.00000037,-0.00000648,0.00000125,-0.00001978,0.0
 0016940,-0.00000057,-0.00002269,-0.00000057,-0.00088281,0.00000439,0.0
 7036392,0.11326670,-0.24645977,0.00153522,0.00534184,0.00401582,-0.078
 37996,-0.12790850,0.25962707,0.00075728,-0.00023050,-0.00017159,0.0000
 3138,-0.00007690,-0.00014783,0.00027143,-0.00010395,0.00024963,0.00448
 430,0.00512637,0.00183952,-0.00003849,0.00008087,0.00003288,-0.0000035
 5,0.00004416,-0.00001384,-0.00036495,0.00001990,0.00001559,0.00003447,
 0.00002506,-0.00005381,-0.00000531,-0.00002181,-0.00002331,0.00036491,
 0.00007571,-0.00035642,-0.01140868,0.00504345,0.00871339,-0.00151813,0
 .00078511,0.00042416,-0.00000977,-0.00000739,-0.00000489,-0.00002399,0
 .00000368,-0.00001224,-0.00002543,-0.00000960,-0.00001443,-0.00000168,
 0.00000406,0.00002643,0.00010184,0.00001538,-0.00001953,-0.24624311,0.
 08273673,0.11161009,-0.00149124,-0.00317917,-0.00288144,-0.00315337,0.
 00278741,0.00179621,0.25824207,0.00131684,-0.00099253,-0.00136710,0.00
 012657,0.00004594,-0.00017756,0.00044304,-0.00010351,0.00065241,0.0048
 8954,0.00363729,0.00707780,-0.00003449,-0.00002148,0.00007364,-0.00005
 933,0.00006844,0.00009932,-0.00020562,0.00029527,-0.00020961,0.0000886
 8,0.00000680,-0.00010058,0.00008640,-0.00000480,-0.00009343,-0.0002449
 2,-0.00042557,0.00038931,0.02244805,-0.00594629,-0.01131176,-0.0010444
 8,0.00031290,0.00022209,-0.00000681,-0.00000330,-0.00001740,0.00002964
 ,-0.00001033,0.00000664,0.00004093,0.00001019,0.00003284,-0.00000725,-
 0.00004834,-0.00010620,0.00016373,0.00034597,-0.00002076,0.07968479,-0
 .07366246,-0.03070505,-0.00322435,-0.00276637,-0.00350717,-0.01137236,
 0.00620713,0.00637808,-0.09311860,0.07305506,0.00080810,-0.00047475,-0
 .00025037,0.00002430,-0.00003871,-0.00012775,0.00017280,-0.00009898,0.
 00005336,0.00272799,0.00599378,0.00309249,-0.00002891,0.00001036,0.000
 04311,-0.00000667,0.00007466,0.00001255,-0.00001402,-0.00039458,0.0002
 2515,0.00009609,0.00000209,-0.00000086,0.00001787,-0.00000835,0.000022
 74,0.00004863,0.00075738,-0.00024274,-0.01267022,0.00598576,0.00868059
 ,-0.00141374,0.00062329,0.00052243,-0.00000754,-0.00000275,-0.00000704
 ,-0.00001186,-0.00000207,-0.00000598,0.00000712,-0.00000051,0.00000915
 ,-0.00003182,0.00011529,0.00015733,-0.00013375,-0.00044455,-0.00004603
 ,0.11482282,-0.03351775,-0.10786273,-0.00279643,-0.00329112,-0.0014285
 5,0.01939785,-0.00797298,-0.00765288,-0.12100859,0.03268449,0.10480604
 \\-0.00029177,-0.00037599,-0.00000321,0.00028496,0.00062716,-0.0000034
 9,-0.00000994,-0.00021994,-0.00000037,-0.00000616,-0.00000096,-0.00000
 221,-0.00000261,0.00000023,0.00000018,0.00000210,-0.00001661,-0.000007
 84,0.00004936,-0.00001331,-0.00001023,-0.00000417,-0.00000317,-0.00000
 605,0.00000557,-0.00000294,-0.00001327,0.00000210,-0.00000464,0.000029
 69,-0.00001059,-0.00000200,-0.00000755,-0.00000053,0.00000072,0.000002
 17,-0.00000100,0.00000391,0.00000226,-0.00000197,0.00000319,0.00000623
 ,0.00000049,0.00000347,-0.00000240,0.00000278,-0.00000267,0.00000441,-
 0.00001733,0.00000277,0.00000295,0.00001211,0.00001884,0.00001605,-0.0
 0000699,-0.00000666,-0.00000151,-0.00000641,-0.00000972,-0.00000578,0.
 ,-0.00000170,-0.00000003\\\@


 THERE ARE PEOPLE SO ADDICTED TO EXAGERATING THEY
 CAN'T TELL THE TRUTH WITHOUT LYING. -- FORTUNE COOKIE
 Job cpu time:       0 days  2 hours 33 minutes 44.8 seconds.
 Elapsed time:       0 days  0 hours 12 minutes 49.5 seconds.
 File lengths (MBytes):  RWF=    204 Int=      0 D2E=      0 Chk=     32 Scr=      1
 Normal termination of Gaussian 16 at Fri Jun 10 12:52:57 2022.
