 Entering Gaussian System, Link 0=g16
 Input=ts_zmat_field_N75.gjf
 Output=ts_zmat_field_N75.out
 Initial command:
 /software/gaussian/g16-a03/l1.exe "/local_scratch/11172287/Gau-5412.inp" -scrdir="/local_scratch/11172287/"
 Entering Link 1 = /software/gaussian/g16-a03/l1.exe PID=      5414.
  
 Copyright (c) 1988,1990,1992,1993,1995,1998,2003,2009,2016,
            Gaussian, Inc.  All Rights Reserved.
  
 This is part of the Gaussian(R) 16 program.  It is based on
 the Gaussian(R) 09 system (copyright 2009, Gaussian, Inc.),
 the Gaussian(R) 03 system (copyright 2003, Gaussian, Inc.),
 the Gaussian(R) 98 system (copyright 1998, Gaussian, Inc.),
 the Gaussian(R) 94 system (copyright 1995, Gaussian, Inc.),
 the Gaussian 92(TM) system (copyright 1992, Gaussian, Inc.),
 the Gaussian 90(TM) system (copyright 1990, Gaussian, Inc.),
 the Gaussian 88(TM) system (copyright 1988, Gaussian, Inc.),
 the Gaussian 86(TM) system (copyright 1986, Carnegie Mellon
 University), and the Gaussian 82(TM) system (copyright 1983,
 Carnegie Mellon University). Gaussian is a federally registered
 trademark of Gaussian, Inc.
  
 This software contains proprietary and confidential information,
 including trade secrets, belonging to Gaussian, Inc.
  
 This software is provided under written license and may be
 used, copied, transmitted, or stored only in accord with that
 written license.
  
 The following legend is applicable only to US Government
 contracts under FAR:
  
                    RESTRICTED RIGHTS LEGEND
  
 Use, reproduction and disclosure by the US Government is
 subject to restrictions as set forth in subparagraphs (a)
 and (c) of the Commercial Computer Software - Restricted
 Rights clause in FAR 52.227-19.
  
 Gaussian, Inc.
 340 Quinnipiac St., Bldg. 40, Wallingford CT 06492
  
  
 ---------------------------------------------------------------
 Warning -- This program may not be used in any manner that
 competes with the business of Gaussian, Inc. or will provide
 assistance to any competitor of Gaussian, Inc.  The licensee
 of this program is prohibited from giving any competitor of
 Gaussian, Inc. access to this program.  By using this program,
 the user acknowledges that Gaussian, Inc. is engaged in the
 business of creating and licensing software in the field of
 computational chemistry and represents and warrants to the
 licensee that it is not a competitor of Gaussian, Inc. and that
 it will not use this program in any manner prohibited above.
 ---------------------------------------------------------------
  

 Cite this work as:
 Gaussian 16, Revision A.03,
 M. J. Frisch, G. W. Trucks, H. B. Schlegel, G. E. Scuseria, 
 M. A. Robb, J. R. Cheeseman, G. Scalmani, V. Barone, 
 G. A. Petersson, H. Nakatsuji, X. Li, M. Caricato, A. V. Marenich, 
 J. Bloino, B. G. Janesko, R. Gomperts, B. Mennucci, H. P. Hratchian, 
 J. V. Ortiz, A. F. Izmaylov, J. L. Sonnenberg, D. Williams-Young, 
 F. Ding, F. Lipparini, F. Egidi, J. Goings, B. Peng, A. Petrone, 
 T. Henderson, D. Ranasinghe, V. G. Zakrzewski, J. Gao, N. Rega, 
 G. Zheng, W. Liang, M. Hada, M. Ehara, K. Toyota, R. Fukuda, 
 J. Hasegawa, M. Ishida, T. Nakajima, Y. Honda, O. Kitao, H. Nakai, 
 T. Vreven, K. Throssell, J. A. Montgomery, Jr., J. E. Peralta, 
 F. Ogliaro, M. J. Bearpark, J. J. Heyd, E. N. Brothers, K. N. Kudin, 
 V. N. Staroverov, T. A. Keith, R. Kobayashi, J. Normand, 
 K. Raghavachari, A. P. Rendell, J. C. Burant, S. S. Iyengar, 
 J. Tomasi, M. Cossi, J. M. Millam, M. Klene, C. Adamo, R. Cammi, 
 J. W. Ochterski, R. L. Martin, K. Morokuma, O. Farkas, 
 J. B. Foresman, and D. J. Fox, Gaussian, Inc., Wallingford CT, 2016.
 
 ******************************************
 Gaussian 16:  ES64L-G16RevA.03 25-Dec-2016
                10-Jun-2022 
 ******************************************
 %nprocshared=12
 Will use up to   12 processors via shared memory.
 %chk=checkpoint.chk
 %mem=12GB
 ----------------------------------------------------------------------
 # Opt=(TS, CalcFC, noeigentest, Z-matrix, MaxStep=10) geom=allcheckpoi
 nt guess=read Field=read NoSymm B3LYP/Def2TZVP freq=noraman pop=none
 ----------------------------------------------------------------------
 1/5=1,8=10,10=4,11=1,18=40,26=3,29=7,38=1/1,3;
 2/12=2,15=1,29=3,40=1/2;
 3/5=44,7=101,11=2,14=-6,25=1,30=1,71=2,74=-5,116=-2,140=1/1,2,3;
 4/5=1/1;
 5/5=2,38=6/2;
 8/6=4,10=90,11=11/1;
 11/6=1,8=1,9=11,15=111,16=1,31=1/1,2,10;
 10/6=1,13=1,31=1/2;
 7/10=1,18=20,25=1,30=1/1,2,3,16;
 1/5=1,8=10,10=4,11=1,18=40,26=3/3(2);
 2/15=1,29=3/2;
 99//99;
 2/15=1,29=3/2;
 3/5=44,7=101,11=2,14=-2,25=1,30=1,71=1,74=-5/1,2,3;
 4/5=5,16=3,69=1/1;
 5/5=2,38=5/2;
 7/30=1/1,2,3,16;
 1/5=1,8=10,11=1,18=40,26=3/3(-5);
 2/15=1,29=3/2;
 99/9=1/99;
 Structure from the checkpoint file:  "checkpoint.chk"
 -----------------
 ts_zmat_initalOpt
 -----------------
 Charge =  0 Multiplicity = 1
 Z-Matrix found in chk file.
 C
 C,1,R2
 C,1,R3,2,A3
 C,2,R4,1,A4,3,D4,0
 O,3,R5,1,A5,2,D5,0
 H,3,R6,1,A6,5,D6,0
 H,3,R7,1,A7,5,D7,0
 H,4,R8,2,A8,1,D8,0
 H,4,R9,2,A9,8,D9,0
 H,4,R10,2,A10,8,D10,0
 C,5,R11,3,A11,1,D11,0
 C,11,R12,5,A12,3,D12,0
 H,11,R13,5,A13,12,D13,0
 H,11,R14,5,A14,12,D14,0
 C,12,R15,11,A15,5,D15,0
 H,12,R16,11,A16,15,D16,0
 C,15,R17,12,A17,11,D17,0
 H,15,R18,12,A18,17,D18,0
 H,17,R19,15,A19,12,D19,0
 H,17,R20,15,A20,19,D20,0
 H,17,R21,15,A21,19,D21,0
      Variables:
 R2=1.24911694
 R3=1.46511958
 R4=1.48415024
 R5=1.44091491
 R6=1.09498122
 R7=1.09406305
 R8=1.09108092
 R9=1.09204209
 R10=1.09232723
 R11=1.43344294
 R12=1.49786966
 R13=1.09481498
 R14=1.09562415
 R15=1.37973624
 R16=1.08847941
 R17=1.40832161
 R18=1.0860704
 R19=1.34958401
 R20=1.08631976
 R21=1.08496528
 A3=153.87116131
 A4=146.59187099
 A5=110.59744683
 A6=111.69083937
 A7=110.09236318
 A8=111.5671734
 A9=110.66873324
 A10=110.78962956
 A11=112.47596321
 A12=109.87791859
 A13=104.63646926
 A14=110.92425248
 A15=129.56782542
 A16=111.56527123
 A17=124.17901314
 A18=115.54755646
 A19=94.1133812
 A20=119.73431912
 A21=117.89701294
 D4=-26.67708647
 D5=-113.68070189
 D6=-121.74445835
 D7=118.11171704
 D8=5.03276698
 D9=-120.48673529
 D10=121.12392396
 D11=-15.10217126
 D12=-35.0970033
 D13=-119.27496937
 D14=124.31378197
 D15=145.76937202
 D16=157.12188013
 D17=-40.86716221
 D18=-155.29177244
 D19=-59.81202105
 D20=100.55092058
 D21=-114.50048901
 Recover connectivity data from disk.

 GradGradGradGradGradGradGradGradGradGradGradGradGradGradGradGradGradGrad
 Berny optimization.
 Initialization pass.
                       ----------------------------
                       !    Initial Parameters    !
                       ! (Angstroms and Degrees)  !
 ----------------------                            ----------------------
 !      Name          Value   Derivative information (Atomic Units)     !
 ------------------------------------------------------------------------
 !       R2          1.2491   calculate D2E/DX2 analytically            !
 !       R3          1.4651   calculate D2E/DX2 analytically            !
 !       R4          1.4842   calculate D2E/DX2 analytically            !
 !       R5          1.4409   calculate D2E/DX2 analytically            !
 !       R6          1.095    calculate D2E/DX2 analytically            !
 !       R7          1.0941   calculate D2E/DX2 analytically            !
 !       R8          1.0911   calculate D2E/DX2 analytically            !
 !       R9          1.092    calculate D2E/DX2 analytically            !
 !       R10         1.0923   calculate D2E/DX2 analytically            !
 !       R11         1.4334   calculate D2E/DX2 analytically            !
 !       R12         1.4979   calculate D2E/DX2 analytically            !
 !       R13         1.0948   calculate D2E/DX2 analytically            !
 !       R14         1.0956   calculate D2E/DX2 analytically            !
 !       R15         1.3797   calculate D2E/DX2 analytically            !
 !       R16         1.0885   calculate D2E/DX2 analytically            !
 !       R17         1.4083   calculate D2E/DX2 analytically            !
 !       R18         1.0861   calculate D2E/DX2 analytically            !
 !       R19         1.3496   calculate D2E/DX2 analytically            !
 !       R20         1.0863   calculate D2E/DX2 analytically            !
 !       R21         1.085    calculate D2E/DX2 analytically            !
 !       A3        153.8712   calculate D2E/DX2 analytically            !
 !       A4        146.5919   calculate D2E/DX2 analytically            !
 !       A5        110.5974   calculate D2E/DX2 analytically            !
 !       A6        111.6908   calculate D2E/DX2 analytically            !
 !       A7        110.0924   calculate D2E/DX2 analytically            !
 !       A8        111.5672   calculate D2E/DX2 analytically            !
 !       A9        110.6687   calculate D2E/DX2 analytically            !
 !       A10       110.7896   calculate D2E/DX2 analytically            !
 !       A11       112.476    calculate D2E/DX2 analytically            !
 !       A12       109.8779   calculate D2E/DX2 analytically            !
 !       A13       104.6365   calculate D2E/DX2 analytically            !
 !       A14       110.9243   calculate D2E/DX2 analytically            !
 !       A15       129.5678   calculate D2E/DX2 analytically            !
 !       A16       111.5653   calculate D2E/DX2 analytically            !
 !       A17       124.179    calculate D2E/DX2 analytically            !
 !       A18       115.5476   calculate D2E/DX2 analytically            !
 !       A19        94.1134   calculate D2E/DX2 analytically            !
 !       A20       119.7343   calculate D2E/DX2 analytically            !
 !       A21       117.897    calculate D2E/DX2 analytically            !
 !       D4        -26.6771   calculate D2E/DX2 analytically            !
 !       D5       -113.6807   calculate D2E/DX2 analytically            !
 !       D6       -121.7445   calculate D2E/DX2 analytically            !
 !       D7        118.1117   calculate D2E/DX2 analytically            !
 !       D8          5.0328   calculate D2E/DX2 analytically            !
 !       D9       -120.4867   calculate D2E/DX2 analytically            !
 !       D10       121.1239   calculate D2E/DX2 analytically            !
 !       D11       -15.1022   calculate D2E/DX2 analytically            !
 !       D12       -35.097    calculate D2E/DX2 analytically            !
 !       D13      -119.275    calculate D2E/DX2 analytically            !
 !       D14       124.3138   calculate D2E/DX2 analytically            !
 !       D15       145.7694   calculate D2E/DX2 analytically            !
 !       D16       157.1219   calculate D2E/DX2 analytically            !
 !       D17       -40.8672   calculate D2E/DX2 analytically            !
 !       D18      -155.2918   calculate D2E/DX2 analytically            !
 !       D19       -59.812    calculate D2E/DX2 analytically            !
 !       D20       100.5509   calculate D2E/DX2 analytically            !
 !       D21      -114.5005   calculate D2E/DX2 analytically            !
 ------------------------------------------------------------------------
 Trust Radius=1.00D-01 FncErr=1.00D-07 GrdErr=1.00D-06 EigMax=2.50D+02 EigMin=1.00D-04
 Number of steps in this run=     67 maximum allowed number of steps=    114.
 Search for a saddle point of order  1.
 GradGradGradGradGradGradGradGradGradGradGradGradGradGradGradGradGradGrad

 ---------------------------------------------------------------------------------------------------
                            Z-MATRIX (ANGSTROMS AND DEGREES)
   CD    Cent   Atom    N1       Length/X        N2       Alpha/Y        N3        Beta/Z          J
 ---------------------------------------------------------------------------------------------------
      1      1  C 
      2      2  C        1   1.249117(     1)
      3      3  C        1   1.465120(     2)      2  153.871(    21)
      4      4  C        2   1.484150(     3)      1  146.592(    22)      3  -26.677(    40)      0
      5      5  O        3   1.440915(     4)      1  110.597(    23)      2 -113.681(    41)      0
      6      6  H        3   1.094981(     5)      1  111.691(    24)      5 -121.744(    42)      0
      7      7  H        3   1.094063(     6)      1  110.092(    25)      5  118.112(    43)      0
      8      8  H        4   1.091081(     7)      2  111.567(    26)      1    5.033(    44)      0
      9      9  H        4   1.092042(     8)      2  110.669(    27)      8 -120.487(    45)      0
     10     10  H        4   1.092327(     9)      2  110.790(    28)      8  121.124(    46)      0
     11     11  C        5   1.433443(    10)      3  112.476(    29)      1  -15.102(    47)      0
     12     12  C       11   1.497870(    11)      5  109.878(    30)      3  -35.097(    48)      0
     13     13  H       11   1.094815(    12)      5  104.636(    31)     12 -119.275(    49)      0
     14     14  H       11   1.095624(    13)      5  110.924(    32)     12  124.314(    50)      0
     15     15  C       12   1.379736(    14)     11  129.568(    33)      5  145.769(    51)      0
     16     16  H       12   1.088479(    15)     11  111.565(    34)     15  157.122(    52)      0
     17     17  C       15   1.408322(    16)     12  124.179(    35)     11  -40.867(    53)      0
     18     18  H       15   1.086070(    17)     12  115.548(    36)     17 -155.292(    54)      0
     19     19  H       17   1.349584(    18)     15   94.113(    37)     12  -59.812(    55)      0
     20     20  H       17   1.086320(    19)     15  119.734(    38)     19  100.551(    56)      0
     21     21  H       17   1.084965(    20)     15  117.897(    39)     19 -114.500(    57)      0
 ---------------------------------------------------------------------------------------------------
                         Z-Matrix orientation:                         
 ---------------------------------------------------------------------
 Center     Atomic      Atomic             Coordinates (Angstroms)
 Number     Number       Type             X           Y           Z
 ---------------------------------------------------------------------
      1          6           0        0.000000    0.000000    0.000000
      2          6           0        0.000000    0.000000    1.249117
      3          6           0        0.645226    0.000000   -1.315393
      4          6           0        0.730185   -0.366879    2.488041
      5          8           0        0.382095    1.235233   -2.009078
      6          1           0        0.305075   -0.837752   -1.933013
      7          1           0        1.730465   -0.079382   -1.201692
      8          1           0        1.721422   -0.765304    2.266309
      9          1           0        0.178067   -1.121950    3.051592
     10          1           0        0.841699    0.499846    3.143427
     11          6           0       -0.691126    1.978406   -1.416922
     12          6           0       -1.730827    1.038412   -0.888675
     13          1           0       -1.090506    2.586899   -2.234756
     14          1           0       -0.317087    2.653979   -0.639691
     15          6           0       -2.539021    1.156743    0.223302
     16          1           0       -2.108430    0.380067   -1.668922
     17          6           0       -2.105500    1.655377    1.467003
     18          1           0       -3.394909    0.488841    0.253473
     19          1           0       -1.160136    0.705746    1.627828
     20          1           0       -1.440162    2.513426    1.501177
     21          1           0       -2.800203    1.616703    2.299494
 ---------------------------------------------------------------------
                    Distance matrix (angstroms):
                    1          2          3          4          5
     1  C    0.000000
     2  C    1.249117   0.000000
     3  C    1.465120   2.644433   0.000000
     4  C    2.618801   1.484150   3.822032   0.000000
     5  O    2.389182   3.505371   1.440915   4.786648   0.000000
     6  H    2.128717   3.304670   1.094981   4.466335   2.075809
     7  H    2.108287   3.001213   1.094063   3.833712   2.048947
     8  H    2.947056   2.140949   3.817392   1.091081   4.906616
     9  H    3.256178   2.130586   4.532942   1.092042   5.586440
    10  H    3.292330   2.132303   4.491050   1.092327   5.224973
    11  C    2.529706   3.391093   2.389610   4.771710   1.433443
    12  C    2.205404   2.940105   2.627930   4.408359   2.399684
    13  H    3.588228   4.474217   3.248082   5.860420   2.011587
    14  H    2.748337   3.272880   2.902796   4.472702   2.092108
    15  C    2.799026   2.972705   3.720896   4.258893   3.677308
    16  H    2.715737   3.620066   2.802151   5.088811   2.655132
    17  C    3.053769   2.687169   4.248352   3.629483   4.295089
    18  H    3.439277   3.571510   4.361536   4.768852   4.465646
    19  H    2.119863   1.409757   3.524196   2.337478   3.985714
    20  H    3.262654   2.907733   4.312681   3.739046   4.156475
    21  H    3.967687   3.399729   5.249011   4.053861   5.369947
                    6          7          8          9         10
     6  H    0.000000
     7  H    1.772482   0.000000
     8  H    4.432335   3.535195   0.000000
     9  H    4.994315   4.646215   1.767996   0.000000
    10  H    5.277061   4.472748   1.773091   1.754725   0.000000
    11  C    3.031421   3.185109   5.187921   5.507751   5.033138
    12  C    2.958974   3.650751   5.012518   4.882288   4.813086
    13  H    3.710381   4.016733   6.277244   6.581057   6.083918
    14  H    3.775176   3.461152   4.928676   5.303620   4.505004
    15  C    4.088592   4.667668   5.100933   4.535882   4.515297
    16  H    2.716216   3.894420   5.609428   5.455948   5.645911
    17  C    4.856611   4.984571   4.598251   3.929267   3.582126
    18  H    4.497827   5.358157   5.639258   4.815628   5.128431
    19  H    4.148351   4.120459   3.297729   2.675511   2.519281
    20  H    5.105869   4.907242   4.618561   4.270645   3.458089
    21  H    5.794930   5.971764   5.110787   4.115332   3.901672
                   11         12         13         14         15
    11  C    0.000000
    12  C    1.497870   0.000000
    13  H    1.094815   2.149362   0.000000
    14  H    1.095624   2.161184   1.773953   0.000000
    15  C    2.603878   1.379736   3.191487   2.814865   0.000000
    16  H    2.151033   1.088479   2.495285   3.072280   2.090251
    17  C    3.228285   2.463787   3.949806   2.938331   1.408322
    18  H    3.509910   2.091817   3.987908   3.867630   1.086070
    19  H    3.333187   2.601758   4.296876   3.106121   2.019261
    20  H    3.059836   2.823392   3.752979   2.421645   2.163572
    21  H    4.288448   3.412097   4.942041   3.985049   2.142511
                   16         17         18         19         20
    16  H    0.000000
    17  C    3.385329   0.000000
    18  H    2.315700   2.120387   0.000000
    19  H    3.445851   1.349584   2.632510   0.000000
    20  H    3.879089   1.086320   3.078433   1.833620   0.000000
    21  H    4.213805   1.084965   2.410799   1.992686   1.814149
                   21
    21  H    0.000000
 Symmetry turned off by external request.
 Stoichiometry    C8H12O
 Framework group  C1[X(C8H12O)]
 Deg. of freedom    57
 Full point group                 C1      NOp   1
 Rotational constants (GHZ):           1.9837183           1.4967568           0.9613567
 Standard basis: def2TZVP (5D, 7F)
 The following finite field(s) will be applied:
 An electric field of             -0.0011  0.0059 -0.0044
   351 basis functions,   555 primitive gaussians,   396 cartesian basis functions
    34 alpha electrons       34 beta electrons
       nuclear repulsion energy       445.0439771402 Hartrees.
 NAtoms=   21 NActive=   21 NUniq=   21 SFac= 1.00D+00 NAtFMM=   60 NAOKFM=F Big=F
 Integral buffers will be    131072 words long.
 Raffenetti 2 integral format.
 Two-electron integral symmetry is turned off.
 One-electron integrals computed using PRISM.
   1 Symmetry operations used in ECPInt.
 ECPInt:  NShTT=   10878 NPrTT=   32112 LenC2=   10637 LenP2D=   24943.
 LDataN:  DoStor=T MaxTD1= 6 Len=  172
 NBasis=   351 RedAO= T EigKep=  2.18D-05  NBF=   351
 NBsUse=   351 1.00D-06 EigRej= -1.00D+00 NBFU=   351
 The nuclear repulsion energy is now       445.6919139436 hartrees.
 Initial guess from the checkpoint file:  "checkpoint.chk"
 B after Tr=    -0.000000    0.000000   -0.000000
         Rot=    1.000000    0.000000   -0.000000    0.000000 Ang=   0.00 deg.
 Requested convergence on RMS density matrix=1.00D-08 within 128 cycles.
 Requested convergence on MAX density matrix=1.00D-06.
 Requested convergence on             energy=1.00D-06.
 No special actions if energy rises.
 SCF Done:  E(RB3LYP) =  -387.294664316     A.U. after   11 cycles
            NFock= 11  Conv=0.36D-08     -V/T= 2.0053
 DoSCS=F DFT=T ScalE2(SS,OS)=  1.000000  1.000000
 Range of M.O.s used for correlation:     1   351
 NBasis=   351 NAE=    34 NBE=    34 NFC=     0 NFV=     0
 NROrb=    351 NOA=    34 NOB=    34 NVA=   317 NVB=   317

 **** Warning!!: The largest alpha MO coefficient is  0.32952392D+02

   1 Symmetry operations used in ECPInt.
 ECPInt:  NShTT=   10878 NPrTT=   32112 LenC2=   10637 LenP2D=   24943.
 LDataN:  DoStor=T MaxTD1= 7 Len=  274
 Symmetrizing basis deriv contribution to polar:
 IMax=3 JMax=2 DiffMx= 0.00D+00
 G2DrvN: will do    22 centers at a time, making    1 passes.
 Calling FoFCou, ICntrl=  3107 FMM=F I1Cent=   0 AccDes= 0.00D+00.
 End of G2Drv F.D. properties file   721 does not exist.
 End of G2Drv F.D. properties file   722 does not exist.
 End of G2Drv F.D. properties file   788 does not exist.
          IDoAtm=111111111111111111111
          Differentiating once with respect to nuclear coordinates.
 CalDSu exits because no D1Ps are significant.
          There are    66 degrees of freedom in the 1st order CPHF.  IDoFFX=6 NUNeed=     0.
     60 vectors produced by pass  0 Test12= 1.63D-14 1.52D-09 XBig12= 2.00D-01 1.53D-01.
 AX will form    60 AO Fock derivatives at one time.
     60 vectors produced by pass  1 Test12= 1.63D-14 1.52D-09 XBig12= 2.79D-02 4.03D-02.
     60 vectors produced by pass  2 Test12= 1.63D-14 1.52D-09 XBig12= 3.41D-04 2.42D-03.
     60 vectors produced by pass  3 Test12= 1.63D-14 1.52D-09 XBig12= 1.44D-06 1.21D-04.
     60 vectors produced by pass  4 Test12= 1.63D-14 1.52D-09 XBig12= 3.48D-09 5.91D-06.
     55 vectors produced by pass  5 Test12= 1.63D-14 1.52D-09 XBig12= 6.49D-12 2.99D-07.
     11 vectors produced by pass  6 Test12= 1.63D-14 1.52D-09 XBig12= 8.27D-15 8.92D-09.
 InvSVY:  IOpt=1 It=  1 EMax= 5.00D-16
 Solved reduced A of dimension   366 with    66 vectors.
 End of Minotr F.D. properties file   721 does not exist.
 End of Minotr F.D. properties file   722 does not exist.
 End of Minotr F.D. properties file   788 does not exist.
   1 Symmetry operations used in ECPInt.
 ECPInt:  NShTT=   10878 NPrTT=   32112 LenC2=   10637 LenP2D=   24943.
 LDataN:  DoStor=T MaxTD1= 8 Len=  415
 Calling FoFJK, ICntrl=    100147 FMM=F ISym2X=0 I1Cent= 0 IOpClX= 0 NMat=1 NMatS=1 NMatT=0.
 -------------------------------------------------------------------
 Center     Atomic                   Forces (Hartrees/Bohr)
 Number     Number              X              Y              Z
 -------------------------------------------------------------------
      1        6          -0.000124893    0.001279182    0.000071202
      2        6           0.000867213   -0.000877065   -0.000400738
      3        6           0.000065586   -0.001482849    0.000906442
      4        6          -0.000087469   -0.000150497    0.000537131
      5        8          -0.000221567    0.001776077   -0.001020626
      6        1           0.000057756    0.000123689    0.000038204
      7        1          -0.000127860   -0.000047145    0.000053347
      8        1          -0.000288951   -0.000037528   -0.000121413
      9        1           0.000111946    0.000052418   -0.000094141
     10        1          -0.000102471   -0.000073473    0.000010814
     11        6           0.000259175   -0.001151715    0.000437838
     12        6          -0.000215356    0.000156705    0.000062292
     13        1          -0.000114326    0.000347930   -0.000557404
     14        1          -0.000024797    0.000098578    0.000209096
     15        6          -0.000600170    0.000563780   -0.000284232
     16        1           0.000069442   -0.000085075   -0.000021089
     17        6          -0.000158596   -0.000046363    0.000055783
     18        1           0.000193372   -0.000154610    0.000101368
     19        1           0.000070182   -0.000099362   -0.000115594
     20        1           0.000201811   -0.000003995    0.000056839
     21        1           0.000169973   -0.000188680    0.000074878
 -------------------------------------------------------------------
 Cartesian Forces:  Max     0.001776077 RMS     0.000476155
 -----------------------------------------------------------------------------------------------
                       Internal Coordinate Forces (Hartree/Bohr or radian)
  Cent   Atom   N1       Length/X         N2         Alpha/Y        N3         Beta/Z          J
 -----------------------------------------------------------------------------------------------
      1  C 
      2  C        1  -0.000068(     1)
      3  C        1  -0.000163(     2)      2   0.000555(    21)
      4  C        2   0.000149(     3)      1   0.000728(    22)      3  -0.000573(    40)     0
      5  O        3   0.001590(     4)      1  -0.001035(    23)      2  -0.000071(    41)     0
      6  H        3  -0.000134(     5)      1   0.000091(    24)      5   0.000026(    42)     0
      7  H        3  -0.000118(     6)      1  -0.000140(    25)      5   0.000105(    43)     0
      8  H        4  -0.000224(     7)      2  -0.000337(    26)      1   0.000045(    44)     0
      9  H        4  -0.000141(     8)      2   0.000030(    27)      8   0.000121(    45)     0
     10  H        4  -0.000062(     9)      2  -0.000002(    28)      8   0.000213(    46)     0
     11  C        5  -0.000172(    10)      3  -0.001324(    29)      1  -0.000702(    47)     0
     12  C       11   0.000073(    11)      5   0.000267(    30)      3  -0.001221(    48)     0
     13  H       11   0.000651(    12)      5  -0.000276(    31)     12  -0.000103(    49)     0
     14  H       11   0.000201(    13)      5   0.000187(    32)     12  -0.000145(    50)     0
     15  C       12  -0.000011(    14)     11   0.000281(    33)      5  -0.001280(    51)     0
     16  H       12   0.000042(    15)     11  -0.000040(    34)     15   0.000194(    52)     0
     17  C       15   0.000031(    16)     12  -0.000869(    35)     11  -0.000827(    53)     0
     18  H       15  -0.000054(    17)     12  -0.000049(    36)     17   0.000483(    54)     0
     19  H       17   0.000105(    18)     15  -0.000315(    37)     12   0.000272(    55)     0
     20  H       17   0.000122(    19)     15   0.000119(    38)     19  -0.000286(    56)     0
     21  H       17  -0.000045(    20)     15   0.000168(    39)     19   0.000449(    57)     0
 -----------------------------------------------------------------------------------------------
 Internal  Forces:  Max     0.001589635 RMS     0.000487776

 GradGradGradGradGradGradGradGradGradGradGradGradGradGradGradGradGradGrad
 Berny optimization.
 Search for a saddle point.
 Step number   1 out of a maximum of   67
 All quantities printed in internal units (Hartrees-Bohrs-Radians)
 Swapping is turned off.
 Second derivative matrix not updated -- analytic derivatives used.
 ITU=  0
     Eigenvalues ---   -0.29611   0.00454   0.00732   0.01167   0.01389
     Eigenvalues ---    0.05178   0.05598   0.05781   0.06254   0.07331
     Eigenvalues ---    0.09244   0.09457   0.10624   0.11801   0.11939
     Eigenvalues ---    0.12601   0.13082   0.14657   0.15500   0.16830
     Eigenvalues ---    0.17789   0.20934   0.21437   0.22044   0.22442
     Eigenvalues ---    0.23288   0.24228   0.24767   0.26678   0.27556
     Eigenvalues ---    0.28264   0.30320   0.30751   0.31267   0.31922
     Eigenvalues ---    0.32035   0.33185   0.33654   0.34388   0.34507
     Eigenvalues ---    0.34535   0.34796   0.34829   0.34937   0.35951
     Eigenvalues ---    0.36626   0.36654   0.37602   0.41807   0.43361
     Eigenvalues ---    0.46469   0.48126   0.65686   0.80025   1.35715
     Eigenvalues ---    2.57750   5.33682
 Eigenvectors required to have negative eigenvalues:
                          R19       A3        A4        D12       R17
   1                    0.56854  -0.36620  -0.36545   0.24877  -0.23434
                          R2        A5        R15       A11       D20
   1                    0.19404  -0.17547   0.16540  -0.16416  -0.16299
 RFO step:  Lambda0=5.981784520D-07 Lambda=-6.13997177D-05.
 Linear search not attempted -- option 19 set.
 Variable       Old X    -DE/DX   Delta X   Delta X   Delta X     New X
                                 (Linear)    (Quad)   (Total)
    R2        2.36049  -0.00007   0.00000   0.00024   0.00024   2.36073
    R3        2.76867  -0.00016   0.00000  -0.00245  -0.00245   2.76623
    R4        2.80464   0.00015   0.00000   0.00133   0.00133   2.80597
    R5        2.72293   0.00159   0.00000   0.00718   0.00718   2.73011
    R6        2.06921  -0.00013   0.00000  -0.00074  -0.00074   2.06847
    R7        2.06748  -0.00012   0.00000  -0.00061  -0.00061   2.06687
    R8        2.06184  -0.00022   0.00000  -0.00084  -0.00084   2.06101
    R9        2.06366  -0.00014   0.00000  -0.00032  -0.00032   2.06334
   R10        2.06420  -0.00006   0.00000  -0.00051  -0.00051   2.06369
   R11        2.70881  -0.00017   0.00000  -0.00079  -0.00079   2.70802
   R12        2.83056   0.00007   0.00000  -0.00111  -0.00111   2.82945
   R13        2.06890   0.00065   0.00000   0.00235   0.00235   2.07125
   R14        2.07043   0.00020   0.00000   0.00069   0.00069   2.07112
   R15        2.60732  -0.00001   0.00000   0.00053   0.00053   2.60786
   R16        2.05693   0.00004   0.00000   0.00003   0.00003   2.05696
   R17        2.66134   0.00003   0.00000  -0.00071  -0.00071   2.66064
   R18        2.05238  -0.00005   0.00000  -0.00004  -0.00004   2.05233
   R19        2.55034   0.00011   0.00000   0.01088   0.01088   2.56122
   R20        2.05285   0.00012   0.00000   0.00007   0.00007   2.05292
   R21        2.05029  -0.00004   0.00000  -0.00029  -0.00029   2.05000
    A3        2.68556   0.00056   0.00000   0.00578   0.00578   2.69134
    A4        2.55851   0.00073   0.00000   0.00135   0.00135   2.55986
    A5        1.93029  -0.00104   0.00000   0.00022   0.00022   1.93051
    A6        1.94937   0.00009   0.00000   0.00107   0.00107   1.95044
    A7        1.92147  -0.00014   0.00000   0.00111   0.00111   1.92258
    A8        1.94721  -0.00034   0.00000  -0.00138  -0.00138   1.94583
    A9        1.93153   0.00003   0.00000  -0.00233  -0.00233   1.92921
   A10        1.93364  -0.00000   0.00000   0.00160   0.00160   1.93524
   A11        1.96308  -0.00132   0.00000  -0.00117  -0.00117   1.96191
   A12        1.91773   0.00027   0.00000   0.00402   0.00402   1.92175
   A13        1.82625  -0.00028   0.00000  -0.00205  -0.00205   1.82420
   A14        1.93599   0.00019   0.00000   0.00042   0.00042   1.93642
   A15        2.26139   0.00028   0.00000  -0.00097  -0.00097   2.26042
   A16        1.94718  -0.00004   0.00000   0.00193   0.00193   1.94911
   A17        2.16733  -0.00087   0.00000   0.00051   0.00051   2.16784
   A18        2.01669  -0.00005   0.00000  -0.00105  -0.00105   2.01563
   A19        1.64259  -0.00032   0.00000  -0.00225  -0.00225   1.64034
   A20        2.08976   0.00012   0.00000   0.00244   0.00244   2.09219
   A21        2.05769   0.00017   0.00000   0.00201   0.00201   2.05970
    D4       -0.46560  -0.00057   0.00000  -0.03943  -0.03943  -0.50503
    D5       -1.98410  -0.00007   0.00000   0.01670   0.01670  -1.96740
    D6       -2.12484   0.00003   0.00000   0.00099   0.00099  -2.12385
    D7        2.06144   0.00010   0.00000  -0.00153  -0.00153   2.05991
    D8        0.08784   0.00004   0.00000   0.02995   0.02995   0.11778
    D9       -2.10289   0.00012   0.00000   0.00320   0.00320  -2.09969
   D10        2.11401   0.00021   0.00000   0.00310   0.00310   2.11711
   D11       -0.26358  -0.00070   0.00000  -0.00730  -0.00730  -0.27088
   D12       -0.61256  -0.00122   0.00000   0.00191   0.00191  -0.61065
   D13       -2.08174  -0.00010   0.00000  -0.00181  -0.00181  -2.08355
   D14        2.16968  -0.00015   0.00000   0.00041   0.00041   2.17009
   D15        2.54416  -0.00128   0.00000  -0.00414  -0.00414   2.54001
   D16        2.74229   0.00019   0.00000   0.00660   0.00660   2.74890
   D17       -0.71327  -0.00083   0.00000   0.00435   0.00435  -0.70892
   D18       -2.71035   0.00048   0.00000   0.00559   0.00559  -2.70477
   D19       -1.04392   0.00027   0.00000   0.00371   0.00371  -1.04021
   D20        1.75494  -0.00029   0.00000  -0.00620  -0.00620   1.74874
   D21       -1.99841   0.00045   0.00000   0.00514   0.00514  -1.99327
         Item               Value     Threshold  Converged?
 Maximum Force            0.001590     0.000450     NO 
 RMS     Force            0.000488     0.000300     NO 
 Maximum Displacement     0.039427     0.001800     NO 
 RMS     Displacement     0.007588     0.001200     NO 
 Predicted change in Energy=-3.050179D-05
 GradGradGradGradGradGradGradGradGradGradGradGradGradGradGradGradGradGrad

 ---------------------------------------------------------------------------------------------------
                            Z-MATRIX (ANGSTROMS AND DEGREES)
   CD    Cent   Atom    N1       Length/X        N2       Alpha/Y        N3        Beta/Z          J
 ---------------------------------------------------------------------------------------------------
      1      1  C 
      2      2  C        1   1.249243(     1)
      3      3  C        1   1.463824(     2)      2  154.202(    21)
      4      4  C        2   1.484854(     3)      1  146.669(    22)      3  -28.936(    40)      0
      5      5  O        3   1.444713(     4)      1  110.610(    23)      2 -112.724(    41)      0
      6      6  H        3   1.094590(     5)      1  111.752(    24)      5 -121.688(    42)      0
      7      7  H        3   1.093739(     6)      1  110.156(    25)      5  118.024(    43)      0
      8      8  H        4   1.090639(     7)      2  111.488(    26)      1    6.748(    44)      0
      9      9  H        4   1.091870(     8)      2  110.536(    27)      8 -120.304(    45)      0
     10     10  H        4   1.092060(     9)      2  110.881(    28)      8  121.301(    46)      0
     11     11  C        5   1.433024(    10)      3  112.409(    29)      1  -15.520(    47)      0
     12     12  C       11   1.497283(    11)      5  110.108(    30)      3  -34.988(    48)      0
     13     13  H       11   1.096060(    12)      5  104.519(    31)     12 -119.379(    49)      0
     14     14  H       11   1.095987(    13)      5  110.948(    32)     12  124.337(    50)      0
     15     15  C       12   1.380018(    14)     11  129.512(    33)      5  145.532(    51)      0
     16     16  H       12   1.088497(    15)     11  111.676(    34)     15  157.500(    52)      0
     17     17  C       15   1.407948(    16)     12  124.208(    35)     11  -40.618(    53)      0
     18     18  H       15   1.086049(    17)     12  115.487(    36)     17 -154.972(    54)      0
     19     19  H       17   1.355339(    18)     15   93.985(    37)     12  -59.600(    55)      0
     20     20  H       17   1.086358(    19)     15  119.874(    38)     19  100.196(    56)      0
     21     21  H       17   1.084813(    20)     15  118.012(    39)     19 -114.206(    57)      0
 ---------------------------------------------------------------------------------------------------
                         Z-Matrix orientation:                         
 ---------------------------------------------------------------------
 Center     Atomic      Atomic             Coordinates (Angstroms)
 Number     Number       Type             X           Y           Z
 ---------------------------------------------------------------------
      1          6           0        0.000000    0.000000    0.000000
      2          6           0        0.000000    0.000000    1.249243
      3          6           0        0.637051    0.000000   -1.317933
      4          6           0        0.714025   -0.394750    2.489860
      5          8           0        0.388072    1.247282   -2.003129
      6          1           0        0.280902   -0.826760   -1.940632
      7          1           0        1.721539   -0.094844   -1.212318
      8          1           0        1.700751   -0.803998    2.269902
      9          1           0        0.145930   -1.151670    3.034397
     10          1           0        0.830111    0.459175    3.160628
     11          6           0       -0.676710    1.996447   -1.404340
     12          6           0       -1.728216    1.068030   -0.880668
     13          1           0       -1.068338    2.616502   -2.218900
     14          1           0       -0.295384    2.662813   -0.622204
     15          6           0       -2.530120    1.189977    0.235812
     16          1           0       -2.115135    0.416908   -1.662436
     17          6           0       -2.085814    1.676137    1.480222
     18          1           0       -3.390611    0.528132    0.267712
     19          1           0       -1.144777    0.711924    1.627488
     20          1           0       -1.408197    2.524369    1.519120
     21          1           0       -2.773150    1.634223    2.318453
 ---------------------------------------------------------------------
                    Distance matrix (angstroms):
                    1          2          3          4          5
     1  C    0.000000
     2  C    1.249243   0.000000
     3  C    1.463824   2.645039   0.000000
     4  C    2.620127   1.484854   3.828974   0.000000
     5  O    2.391409   3.504888   1.444713   4.794734   0.000000
     6  H    2.128025   3.307225   1.094590   4.472525   2.077749
     7  H    2.107702   3.005325   1.093739   3.848526   2.050565
     8  H    2.948122   2.140260   3.827588   1.090639   4.918299
     9  H    3.248877   2.129416   4.528832   1.091870   5.584825
    10  H    3.299924   2.133851   4.506177   1.092060   5.242223
    11  C    2.532965   3.388989   2.391492   4.776690   1.433024
    12  C    2.214271   2.943458   2.631801   4.411886   2.402234
    13  H    3.593181   4.473863   3.250565   5.866591   2.010585
    14  H    2.750448   3.268048   2.905864   4.478007   2.092318
    15  C    2.805915   2.973987   3.723055   4.256357   3.678585
    16  H    2.722370   3.622911   2.804821   5.089646   2.659255
    17  C    3.057959   2.685779   4.248894   3.625885   4.293922
    18  H    3.441923   3.569113   4.360648   4.757909   4.466805
    19  H    2.113307   1.400150   3.515288   2.328854   3.977137
    20  H    3.265453   2.903151   4.313276   3.737301   4.154970
    21  H    3.966897   3.391792   5.246280   4.038132   5.368345
                    6          7          8          9         10
     6  H    0.000000
     7  H    1.772450   0.000000
     8  H    4.443544   3.553756   0.000000
     9  H    4.987453   4.651238   1.767144   0.000000
    10  H    5.289434   4.497137   1.773983   1.754669   0.000000
    11  C    3.029047   3.187785   5.195659   5.503614   5.047044
    12  C    2.958092   3.655555   5.018805   4.875165   4.821599
    13  H    3.708630   4.018460   6.286256   6.578047   6.098975
    14  H    3.774583   3.467115   4.936356   5.302431   4.520241
    15  C    4.087295   4.671665   5.100366   4.525112   4.514396
    16  H    2.713871   3.896738   5.613811   5.443628   5.651389
    17  C    4.854696   4.988194   4.594860   3.923345   3.578740
    18  H    4.493609   5.358420   5.630746   4.794101   5.117442
    19  H    4.139032   4.114747   3.287514   2.668015   2.512884
    20  H    5.104214   4.910832   4.615978   4.269032   3.459710
    21  H    5.789946   5.971453   5.095397   4.098147   3.882459
                   11         12         13         14         15
    11  C    0.000000
    12  C    1.497283   0.000000
    13  H    1.096060   2.150365   0.000000
    14  H    1.095987   2.159431   1.774554   0.000000
    15  C    2.603003   1.380018   3.193335   2.810601   0.000000
    16  H    2.151888   1.088497   2.498729   3.072077   2.091218
    17  C    3.226279   2.464036   3.950070   2.932467   1.407948
    18  H    3.509554   2.091369   3.992178   3.863838   1.086049
    19  H    3.325819   2.599627   4.292780   3.096539   2.021008
    20  H    3.059477   2.825300   3.754569   2.417186   2.164762
    21  H    4.287827   3.412746   4.945587   3.980551   2.143318
                   16         17         18         19         20
    16  H    0.000000
    17  C    3.385678   0.000000
    18  H    2.316178   2.119102   0.000000
    19  H    3.442706   1.355339   2.631832   0.000000
    20  H    3.881166   1.086358   3.079115   1.834691   0.000000
    21  H    4.214536   1.084813   2.410443   1.994910   1.815045
                   21
    21  H    0.000000
 Symmetry turned off by external request.
 Stoichiometry    C8H12O
 Framework group  C1[X(C8H12O)]
 Deg. of freedom    57
 Full point group                 C1      NOp   1
 Rotational constants (GHZ):           1.9853432           1.4937875           0.9603796
 Standard basis: def2TZVP (5D, 7F)
 The following finite field(s) will be applied:
 An electric field of             -0.0011  0.0059 -0.0044
   351 basis functions,   555 primitive gaussians,   396 cartesian basis functions
    34 alpha electrons       34 beta electrons
       nuclear repulsion energy       444.8868098845 Hartrees.
 NAtoms=   21 NActive=   21 NUniq=   21 SFac= 1.00D+00 NAtFMM=   60 NAOKFM=F Big=F
 Integral buffers will be    131072 words long.
 Raffenetti 2 integral format.
 Two-electron integral symmetry is turned off.
 One-electron integrals computed using PRISM.
   1 Symmetry operations used in ECPInt.
 ECPInt:  NShTT=   10878 NPrTT=   32112 LenC2=   10635 LenP2D=   24937.
 LDataN:  DoStor=T MaxTD1= 6 Len=  172
 NBasis=   351 RedAO= T EigKep=  2.17D-05  NBF=   351
 NBsUse=   351 1.00D-06 EigRej= -1.00D+00 NBFU=   351
 The nuclear repulsion energy is now       445.5374600378 hartrees.
 Initial guess from the checkpoint file:  "checkpoint.chk"
 B after Tr=    -0.013783    0.002036    0.000209
         Rot=    0.999972   -0.003358   -0.000577    0.006675 Ang=  -0.86 deg.
 ExpMin= 9.52D-02 ExpMax= 2.70D+04 ExpMxC= 9.22D+02 IAcc=2 IRadAn=         4 AccDes= 0.00D+00
 Harris functional with IExCor=  402 and IRadAn=       4 diagonalized for initial guess.
 HarFok:  IExCor=  402 AccDes= 0.00D+00 IRadAn=         4 IDoV= 1 UseB2=F ITyADJ=14
 ICtDFT=  3500011 ScaDFX=  1.000000  1.000000  1.000000  1.000000
 FoFCou: FMM=F IPFlag=           0 FMFlag=      100000 FMFlg1=           0
         NFxFlg=           0 DoJE=T BraDBF=F KetDBF=T FulRan=T
         wScrn=  0.000000 ICntrl=       500 IOpCl=  0 I1Cent=   200000004 NGrid=           0
         NMat0=    1 NMatS0=      1 NMatT0=    0 NMatD0=    1 NMtDS0=    0 NMtDT0=    0
 Symmetry not used in FoFCou.
 Requested convergence on RMS density matrix=1.00D-08 within 128 cycles.
 Requested convergence on MAX density matrix=1.00D-06.
 Requested convergence on             energy=1.00D-06.
 No special actions if energy rises.
 Integral accuracy reduced to 1.0D-05 until final iterations.
 Initial convergence to 1.0D-05 achieved.  Increase integral accuracy.
 SCF Done:  E(RB3LYP) =  -387.294694737     A.U. after   11 cycles
            NFock= 11  Conv=0.71D-08     -V/T= 2.0053
   1 Symmetry operations used in ECPInt.
 ECPInt:  NShTT=   10878 NPrTT=   32112 LenC2=   10635 LenP2D=   24937.
 LDataN:  DoStor=T MaxTD1= 7 Len=  274
 Calling FoFJK, ICntrl=      2127 FMM=F ISym2X=0 I1Cent= 0 IOpClX= 0 NMat=1 NMatS=1 NMatT=0.
 -------------------------------------------------------------------
 Center     Atomic                   Forces (Hartrees/Bohr)
 Number     Number              X              Y              Z
 -------------------------------------------------------------------
      1        6          -0.000267959    0.001799850    0.000004587
      2        6           0.000297609   -0.001685051    0.000001450
      3        6          -0.000007636   -0.000147532    0.000004399
      4        6           0.000002651   -0.000003802    0.000003224
      5        8          -0.000000018    0.000021399   -0.000010401
      6        1          -0.000000582   -0.000000322    0.000000010
      7        1           0.000001586    0.000000255    0.000001240
      8        1           0.000002975   -0.000000592    0.000001629
      9        1          -0.000000007   -0.000000296   -0.000000799
     10        1           0.000000054    0.000000815   -0.000002321
     11        6           0.000001285   -0.000003284    0.000000557
     12        6          -0.000006510    0.000003845   -0.000000497
     13        1          -0.000001259    0.000001636   -0.000002357
     14        1           0.000000480    0.000000036    0.000000554
     15        6          -0.000004181   -0.000002312   -0.000009172
     16        1           0.000000159   -0.000000152   -0.000000667
     17        6          -0.000000072    0.000005090    0.000006299
     18        1          -0.000000733    0.000000603   -0.000000818
     19        1          -0.000019842    0.000012613    0.000004856
     20        1           0.000002413    0.000000311   -0.000001914
     21        1          -0.000000414   -0.000003110    0.000000138
 -------------------------------------------------------------------
 Cartesian Forces:  Max     0.001799850 RMS     0.000315287
 -----------------------------------------------------------------------------------------------
                       Internal Coordinate Forces (Hartree/Bohr or radian)
  Cent   Atom   N1       Length/X         N2         Alpha/Y        N3         Beta/Z          J
 -----------------------------------------------------------------------------------------------
      1  C 
      2  C        1   0.000003(     1)
      3  C        1  -0.000008(     2)      2  -0.000057(    21)
      4  C        2   0.000005(     3)      1  -0.000007(    22)      3   0.000001(    40)     0
      5  O        3   0.000043(     4)      1   0.000138(    23)      2  -0.000013(    41)     0
      6  H        3   0.000000(     5)      1  -0.000001(    24)      5   0.000000(    42)     0
      7  H        3   0.000002(     6)      1  -0.000002(    25)      5  -0.000001(    43)     0
      8  H        4   0.000003(     7)      2   0.000004(    26)      1   0.000000(    44)     0
      9  H        4  -0.000000(     8)      2  -0.000001(    27)      8   0.000001(    45)     0
     10  H        4  -0.000001(     9)      2  -0.000004(    28)      8  -0.000002(    46)     0
     11  C        5   0.000028(    10)      3   0.000194(    29)      1  -0.000106(    47)     0
     12  C       11   0.000009(    11)      5   0.000106(    30)      3  -0.000055(    48)     0
     13  H       11   0.000003(    12)      5   0.000000(    31)     12   0.000000(    49)     0
     14  H       11   0.000001(    13)      5  -0.000001(    32)     12  -0.000001(    50)     0
     15  C       12   0.000014(    14)     11   0.000009(    33)      5   0.000114(    51)     0
     16  H       12   0.000001(    15)     11  -0.000001(    34)     15   0.000000(    52)     0
     17  C       15   0.000008(    16)     12   0.000053(    35)     11   0.000027(    53)     0
     18  H       15   0.000000(    17)     12  -0.000001(    36)     17  -0.000002(    54)     0
     19  H       17  -0.000022(    18)     15   0.000010(    37)     12  -0.000019(    55)     0
     20  H       17   0.000002(    19)     15  -0.000004(    38)     19  -0.000003(    56)     0
     21  H       17   0.000000(    20)     15  -0.000003(    39)     19   0.000005(    57)     0
 -----------------------------------------------------------------------------------------------
 Internal  Forces:  Max     0.000194079 RMS     0.000043202

 GradGradGradGradGradGradGradGradGradGradGradGradGradGradGradGradGradGrad
 Berny optimization.
 Search for a saddle point.
 Step number   2 out of a maximum of   67
 All quantities printed in internal units (Hartrees-Bohrs-Radians)
 Swapping is turned off.
 Update second derivatives using D2CorN and points    1    2
 ITU=  0  0
     Eigenvalues ---   -0.29608   0.00458   0.00732   0.01168   0.01389
     Eigenvalues ---    0.05179   0.05598   0.05781   0.06255   0.07331
     Eigenvalues ---    0.09244   0.09457   0.10623   0.11801   0.11939
     Eigenvalues ---    0.12600   0.13081   0.14656   0.15499   0.16830
     Eigenvalues ---    0.17789   0.20933   0.21437   0.22044   0.22442
     Eigenvalues ---    0.23288   0.24228   0.24767   0.26678   0.27556
     Eigenvalues ---    0.28263   0.30320   0.30751   0.31267   0.31922
     Eigenvalues ---    0.32035   0.33185   0.33654   0.34388   0.34507
     Eigenvalues ---    0.34535   0.34796   0.34829   0.34937   0.35951
     Eigenvalues ---    0.36626   0.36654   0.37602   0.41807   0.43361
     Eigenvalues ---    0.46468   0.48126   0.65687   0.80025   1.35715
     Eigenvalues ---    2.57750   5.33685
 Eigenvectors required to have negative eigenvalues:
                          R19       A3        A4        D12       R17
   1                    0.56817  -0.36642  -0.36548   0.24868  -0.23432
                          R2        A5        R15       A11       D20
   1                    0.19404  -0.17550   0.16540  -0.16416  -0.16279
 RFO step:  Lambda0=2.122254991D-08 Lambda=-2.80729462D-08.
 Linear search not attempted -- option 19 set.
 Variable       Old X    -DE/DX   Delta X   Delta X   Delta X     New X
                                 (Linear)    (Quad)   (Total)
    R2        2.36073   0.00000   0.00000   0.00003   0.00003   2.36076
    R3        2.76623  -0.00001   0.00000   0.00000   0.00000   2.76623
    R4        2.80597   0.00001   0.00000   0.00002   0.00002   2.80599
    R5        2.73011   0.00004   0.00000   0.00008   0.00008   2.73019
    R6        2.06847   0.00000   0.00000  -0.00000  -0.00000   2.06847
    R7        2.06687   0.00000   0.00000  -0.00000  -0.00000   2.06687
    R8        2.06101   0.00000   0.00000   0.00001   0.00001   2.06102
    R9        2.06334  -0.00000   0.00000  -0.00000  -0.00000   2.06333
   R10        2.06369  -0.00000   0.00000  -0.00000  -0.00000   2.06369
   R11        2.70802   0.00003   0.00000   0.00000   0.00000   2.70803
   R12        2.82945   0.00001   0.00000   0.00001   0.00001   2.82946
   R13        2.07125   0.00000   0.00000   0.00001   0.00001   2.07127
   R14        2.07112   0.00000   0.00000   0.00000   0.00000   2.07112
   R15        2.60786   0.00001   0.00000   0.00003   0.00003   2.60789
   R16        2.05696   0.00000   0.00000   0.00000   0.00000   2.05696
   R17        2.66064   0.00001   0.00000  -0.00002  -0.00002   2.66062
   R18        2.05233   0.00000   0.00000  -0.00000  -0.00000   2.05233
   R19        2.56122  -0.00002   0.00000   0.00016   0.00016   2.56138
   R20        2.05292   0.00000   0.00000   0.00000   0.00000   2.05292
   R21        2.05000   0.00000   0.00000  -0.00000  -0.00000   2.05000
    A3        2.69134  -0.00006   0.00000  -0.00001  -0.00001   2.69133
    A4        2.55986  -0.00001   0.00000  -0.00012  -0.00012   2.55974
    A5        1.93051   0.00014   0.00000  -0.00004  -0.00004   1.93047
    A6        1.95044  -0.00000   0.00000   0.00001   0.00001   1.95045
    A7        1.92258  -0.00000   0.00000   0.00003   0.00003   1.92261
    A8        1.94583   0.00000   0.00000   0.00003   0.00003   1.94586
    A9        1.92921  -0.00000   0.00000  -0.00001  -0.00001   1.92920
   A10        1.93524  -0.00000   0.00000  -0.00003  -0.00003   1.93521
   A11        1.96191   0.00019   0.00000  -0.00004  -0.00004   1.96187
   A12        1.92175   0.00011   0.00000   0.00000   0.00000   1.92175
   A13        1.82420   0.00000   0.00000   0.00003   0.00003   1.82423
   A14        1.93642  -0.00000   0.00000  -0.00002  -0.00002   1.93640
   A15        2.26042   0.00001   0.00000  -0.00002  -0.00002   2.26040
   A16        1.94911  -0.00000   0.00000  -0.00001  -0.00001   1.94910
   A17        2.16784   0.00005   0.00000  -0.00002  -0.00002   2.16782
   A18        2.01563  -0.00000   0.00000   0.00001   0.00001   2.01564
   A19        1.64034   0.00001   0.00000  -0.00001  -0.00001   1.64033
   A20        2.09219  -0.00000   0.00000   0.00000   0.00000   2.09220
   A21        2.05970  -0.00000   0.00000   0.00001   0.00001   2.05971
    D4       -0.50503   0.00000   0.00000   0.00010   0.00010  -0.50493
    D5       -1.96740  -0.00001   0.00000   0.00016   0.00016  -1.96724
    D6       -2.12385   0.00000   0.00000   0.00000   0.00000  -2.12385
    D7        2.05991  -0.00000   0.00000  -0.00005  -0.00005   2.05985
    D8        0.11778   0.00000   0.00000   0.00001   0.00001   0.11780
    D9       -2.09969   0.00000   0.00000  -0.00002  -0.00002  -2.09971
   D10        2.11711  -0.00000   0.00000  -0.00001  -0.00001   2.11710
   D11       -0.27088  -0.00011   0.00000  -0.00031  -0.00031  -0.27119
   D12       -0.61065  -0.00005   0.00000   0.00032   0.00032  -0.61033
   D13       -2.08355   0.00000   0.00000  -0.00002  -0.00002  -2.08357
   D14        2.17009  -0.00000   0.00000  -0.00002  -0.00002   2.17007
   D15        2.54001   0.00011   0.00000   0.00008   0.00008   2.54009
   D16        2.74890   0.00000   0.00000  -0.00015  -0.00015   2.74875
   D17       -0.70892   0.00003   0.00000  -0.00014  -0.00014  -0.70905
   D18       -2.70477  -0.00000   0.00000   0.00000   0.00000  -2.70476
   D19       -1.04021  -0.00002   0.00000   0.00002   0.00002  -1.04019
   D20        1.74874  -0.00000   0.00000  -0.00008  -0.00008   1.74866
   D21       -1.99327   0.00000   0.00000   0.00006   0.00006  -1.99321
         Item               Value     Threshold  Converged?
 Maximum Force            0.000194     0.000450     YES
 RMS     Force            0.000043     0.000300     YES
 Maximum Displacement     0.000316     0.001800     YES
 RMS     Displacement     0.000079     0.001200     YES
 Predicted change in Energy=-3.425197D-09
 Optimization completed.
    -- Stationary point found.
                       ----------------------------
                       !   Optimized Parameters   !
                       ! (Angstroms and Degrees)  !
 ----------------------                            ----------------------
 !      Name          Value   Derivative information (Atomic Units)     !
 ------------------------------------------------------------------------
 !       R2          1.2492   -DE/DX =    0.0                           !
 !       R3          1.4638   -DE/DX =    0.0                           !
 !       R4          1.4849   -DE/DX =    0.0                           !
 !       R5          1.4447   -DE/DX =    0.0                           !
 !       R6          1.0946   -DE/DX =    0.0                           !
 !       R7          1.0937   -DE/DX =    0.0                           !
 !       R8          1.0906   -DE/DX =    0.0                           !
 !       R9          1.0919   -DE/DX =    0.0                           !
 !       R10         1.0921   -DE/DX =    0.0                           !
 !       R11         1.433    -DE/DX =    0.0                           !
 !       R12         1.4973   -DE/DX =    0.0                           !
 !       R13         1.0961   -DE/DX =    0.0                           !
 !       R14         1.096    -DE/DX =    0.0                           !
 !       R15         1.38     -DE/DX =    0.0                           !
 !       R16         1.0885   -DE/DX =    0.0                           !
 !       R17         1.4079   -DE/DX =    0.0                           !
 !       R18         1.086    -DE/DX =    0.0                           !
 !       R19         1.3553   -DE/DX =    0.0                           !
 !       R20         1.0864   -DE/DX =    0.0                           !
 !       R21         1.0848   -DE/DX =    0.0                           !
 !       A3        154.2022   -DE/DX =   -0.0001                        !
 !       A4        146.6695   -DE/DX =    0.0                           !
 !       A5        110.6103   -DE/DX =    0.0001                        !
 !       A6        111.7519   -DE/DX =    0.0                           !
 !       A7        110.1559   -DE/DX =    0.0                           !
 !       A8        111.4881   -DE/DX =    0.0                           !
 !       A9        110.5355   -DE/DX =    0.0                           !
 !       A10       110.881    -DE/DX =    0.0                           !
 !       A11       112.4092   -DE/DX =    0.0002                        !
 !       A12       110.1081   -DE/DX =    0.0001                        !
 !       A13       104.5191   -DE/DX =    0.0                           !
 !       A14       110.9484   -DE/DX =    0.0                           !
 !       A15       129.5124   -DE/DX =    0.0                           !
 !       A16       111.6759   -DE/DX =    0.0                           !
 !       A17       124.2082   -DE/DX =    0.0001                        !
 !       A18       115.4873   -DE/DX =    0.0                           !
 !       A19        93.9847   -DE/DX =    0.0                           !
 !       A20       119.8739   -DE/DX =    0.0                           !
 !       A21       118.0122   -DE/DX =    0.0                           !
 !       D4        -28.9361   -DE/DX =    0.0                           !
 !       D5       -112.7238   -DE/DX =    0.0                           !
 !       D6       -121.6878   -DE/DX =    0.0                           !
 !       D7        118.0239   -DE/DX =    0.0                           !
 !       D8          6.7485   -DE/DX =    0.0                           !
 !       D9       -120.3036   -DE/DX =    0.0                           !
 !       D10       121.3015   -DE/DX =    0.0                           !
 !       D11       -15.5202   -DE/DX =   -0.0001                        !
 !       D12       -34.9877   -DE/DX =   -0.0001                        !
 !       D13      -119.3787   -DE/DX =    0.0                           !
 !       D14       124.3371   -DE/DX =    0.0                           !
 !       D15       145.5321   -DE/DX =    0.0001                        !
 !       D16       157.5002   -DE/DX =    0.0                           !
 !       D17       -40.618    -DE/DX =    0.0                           !
 !       D18      -154.9717   -DE/DX =    0.0                           !
 !       D19       -59.5996   -DE/DX =    0.0                           !
 !       D20       100.1956   -DE/DX =    0.0                           !
 !       D21      -114.2061   -DE/DX =    0.0                           !
 ------------------------------------------------------------------------
 GradGradGradGradGradGradGradGradGradGradGradGradGradGradGradGradGradGrad

 ---------------------------------------------------------------------------------------------------
                            Z-MATRIX (ANGSTROMS AND DEGREES)
   CD    Cent   Atom    N1       Length/X        N2       Alpha/Y        N3        Beta/Z          J
 ---------------------------------------------------------------------------------------------------
      1      1  C 
      2      2  C        1   1.249243(     1)
      3      3  C        1   1.463824(     2)      2  154.202(    21)
      4      4  C        2   1.484854(     3)      1  146.669(    22)      3  -28.936(    40)      0
      5      5  O        3   1.444713(     4)      1  110.610(    23)      2 -112.724(    41)      0
      6      6  H        3   1.094590(     5)      1  111.752(    24)      5 -121.688(    42)      0
      7      7  H        3   1.093739(     6)      1  110.156(    25)      5  118.024(    43)      0
      8      8  H        4   1.090639(     7)      2  111.488(    26)      1    6.748(    44)      0
      9      9  H        4   1.091870(     8)      2  110.536(    27)      8 -120.304(    45)      0
     10     10  H        4   1.092060(     9)      2  110.881(    28)      8  121.301(    46)      0
     11     11  C        5   1.433024(    10)      3  112.409(    29)      1  -15.520(    47)      0
     12     12  C       11   1.497283(    11)      5  110.108(    30)      3  -34.988(    48)      0
     13     13  H       11   1.096060(    12)      5  104.519(    31)     12 -119.379(    49)      0
     14     14  H       11   1.095987(    13)      5  110.948(    32)     12  124.337(    50)      0
     15     15  C       12   1.380018(    14)     11  129.512(    33)      5  145.532(    51)      0
     16     16  H       12   1.088497(    15)     11  111.676(    34)     15  157.500(    52)      0
     17     17  C       15   1.407948(    16)     12  124.208(    35)     11  -40.618(    53)      0
     18     18  H       15   1.086049(    17)     12  115.487(    36)     17 -154.972(    54)      0
     19     19  H       17   1.355339(    18)     15   93.985(    37)     12  -59.600(    55)      0
     20     20  H       17   1.086358(    19)     15  119.874(    38)     19  100.196(    56)      0
     21     21  H       17   1.084813(    20)     15  118.012(    39)     19 -114.206(    57)      0
 ---------------------------------------------------------------------------------------------------
                         Z-Matrix orientation:                         
 ---------------------------------------------------------------------
 Center     Atomic      Atomic             Coordinates (Angstroms)
 Number     Number       Type             X           Y           Z
 ---------------------------------------------------------------------
      1          6           0        0.000000    0.000000    0.000000
      2          6           0        0.000000    0.000000    1.249243
      3          6           0        0.637051    0.000000   -1.317933
      4          6           0        0.714025   -0.394750    2.489860
      5          8           0        0.388072    1.247282   -2.003129
      6          1           0        0.280902   -0.826760   -1.940632
      7          1           0        1.721539   -0.094844   -1.212318
      8          1           0        1.700751   -0.803998    2.269902
      9          1           0        0.145930   -1.151670    3.034397
     10          1           0        0.830111    0.459175    3.160628
     11          6           0       -0.676710    1.996447   -1.404340
     12          6           0       -1.728216    1.068030   -0.880668
     13          1           0       -1.068338    2.616502   -2.218900
     14          1           0       -0.295384    2.662813   -0.622204
     15          6           0       -2.530120    1.189977    0.235812
     16          1           0       -2.115135    0.416908   -1.662436
     17          6           0       -2.085814    1.676137    1.480222
     18          1           0       -3.390611    0.528132    0.267712
     19          1           0       -1.144777    0.711924    1.627488
     20          1           0       -1.408197    2.524369    1.519120
     21          1           0       -2.773150    1.634223    2.318453
 ---------------------------------------------------------------------
                    Distance matrix (angstroms):
                    1          2          3          4          5
     1  C    0.000000
     2  C    1.249243   0.000000
     3  C    1.463824   2.645039   0.000000
     4  C    2.620127   1.484854   3.828974   0.000000
     5  O    2.391409   3.504888   1.444713   4.794734   0.000000
     6  H    2.128025   3.307225   1.094590   4.472525   2.077749
     7  H    2.107702   3.005325   1.093739   3.848526   2.050565
     8  H    2.948122   2.140260   3.827588   1.090639   4.918299
     9  H    3.248877   2.129416   4.528832   1.091870   5.584825
    10  H    3.299924   2.133851   4.506177   1.092060   5.242223
    11  C    2.532965   3.388989   2.391492   4.776690   1.433024
    12  C    2.214271   2.943458   2.631801   4.411886   2.402234
    13  H    3.593181   4.473863   3.250565   5.866591   2.010585
    14  H    2.750448   3.268048   2.905864   4.478007   2.092318
    15  C    2.805915   2.973987   3.723055   4.256357   3.678585
    16  H    2.722370   3.622911   2.804821   5.089646   2.659255
    17  C    3.057959   2.685779   4.248894   3.625885   4.293922
    18  H    3.441923   3.569113   4.360648   4.757909   4.466805
    19  H    2.113307   1.400150   3.515288   2.328854   3.977137
    20  H    3.265453   2.903151   4.313276   3.737301   4.154970
    21  H    3.966897   3.391792   5.246280   4.038132   5.368345
                    6          7          8          9         10
     6  H    0.000000
     7  H    1.772450   0.000000
     8  H    4.443544   3.553756   0.000000
     9  H    4.987453   4.651238   1.767144   0.000000
    10  H    5.289434   4.497137   1.773983   1.754669   0.000000
    11  C    3.029047   3.187785   5.195659   5.503614   5.047044
    12  C    2.958092   3.655555   5.018805   4.875165   4.821599
    13  H    3.708630   4.018460   6.286256   6.578047   6.098975
    14  H    3.774583   3.467115   4.936356   5.302431   4.520241
    15  C    4.087295   4.671665   5.100366   4.525112   4.514396
    16  H    2.713871   3.896738   5.613811   5.443628   5.651389
    17  C    4.854696   4.988194   4.594860   3.923345   3.578740
    18  H    4.493609   5.358420   5.630746   4.794101   5.117442
    19  H    4.139032   4.114747   3.287514   2.668015   2.512884
    20  H    5.104214   4.910832   4.615978   4.269032   3.459710
    21  H    5.789946   5.971453   5.095397   4.098147   3.882459
                   11         12         13         14         15
    11  C    0.000000
    12  C    1.497283   0.000000
    13  H    1.096060   2.150365   0.000000
    14  H    1.095987   2.159431   1.774554   0.000000
    15  C    2.603003   1.380018   3.193335   2.810601   0.000000
    16  H    2.151888   1.088497   2.498729   3.072077   2.091218
    17  C    3.226279   2.464036   3.950070   2.932467   1.407948
    18  H    3.509554   2.091369   3.992178   3.863838   1.086049
    19  H    3.325819   2.599627   4.292780   3.096539   2.021008
    20  H    3.059477   2.825300   3.754569   2.417186   2.164762
    21  H    4.287827   3.412746   4.945587   3.980551   2.143318
                   16         17         18         19         20
    16  H    0.000000
    17  C    3.385678   0.000000
    18  H    2.316178   2.119102   0.000000
    19  H    3.442706   1.355339   2.631832   0.000000
    20  H    3.881166   1.086358   3.079115   1.834691   0.000000
    21  H    4.214536   1.084813   2.410443   1.994910   1.815045
                   21
    21  H    0.000000
 Symmetry turned off by external request.
 Stoichiometry    C8H12O
 Framework group  C1[X(C8H12O)]
 Deg. of freedom    57
 Full point group                 C1      NOp   1
 Rotational constants (GHZ):           1.9853432           1.4937875           0.9603796
 1\1\GINC-BHC0009\FTS\RB3LYP\def2TZVP\C8H12O1\DHANAWAY\10-Jun-2022\1\\#
  Opt=(TS, CalcFC, noeigentest, Z-matrix, MaxStep=10) geom=allcheckpoin
 t guess=read Field=read NoSymm B3LYP/Def2TZVP freq=noraman pop=none\\t
 s_zmat_initalOpt\\0,1\C\C,1,R2\C,1,R3,2,A3\C,2,R4,1,A4,3,D4,0\O,3,R5,1
 ,A5,2,D5,0\H,3,R6,1,A6,5,D6,0\H,3,R7,1,A7,5,D7,0\H,4,R8,2,A8,1,D8,0\H,
 4,R9,2,A9,8,D9,0\H,4,R10,2,A10,8,D10,0\C,5,R11,3,A11,1,D11,0\C,11,R12,
 5,A12,3,D12,0\H,11,R13,5,A13,12,D13,0\H,11,R14,5,A14,12,D14,0\C,12,R15
 ,11,A15,5,D15,0\H,12,R16,11,A16,15,D16,0\C,15,R17,12,A17,11,D17,0\H,15
 ,R18,12,A18,17,D18,0\H,17,R19,15,A19,12,D19,0\H,17,R20,15,A20,19,D20,0
 \H,17,R21,15,A21,19,D21,0\\R2=1.24924313\R3=1.46382444\R4=1.48485373\R
 5=1.44471287\R6=1.09458971\R7=1.09373943\R8=1.09063887\R9=1.0918703\R1
 0=1.09205976\R11=1.43302426\R12=1.49728304\R13=1.09606044\R14=1.095987
 48\R15=1.38001761\R16=1.08849702\R17=1.40794761\R18=1.08604879\R19=1.3
 5533935\R20=1.08635845\R21=1.08481269\A3=154.20223034\A4=146.66945843\
 A5=110.61025075\A6=111.75194529\A7=110.15588522\A8=111.4881106\A9=110.
 53552032\A10=110.88102977\A11=112.409199\A12=110.10810317\A13=104.5190
 6702\A14=110.94842848\A15=129.51240413\A16=111.67585605\A17=124.208220
 99\A18=115.48734969\A19=93.98473137\A20=119.87391092\A21=118.01216476\
 D4=-28.9360966\D5=-112.72382472\D6=-121.68776328\D7=118.02390857\D8=6.
 74849521\D9=-120.30357118\D10=121.30148335\D11=-15.52019181\D12=-34.98
 768736\D13=-119.37867854\D14=124.33709426\D15=145.53206261\D16=157.500
 23226\D17=-40.61801539\D18=-154.97170578\D19=-59.59963338\D20=100.1956
 0436\D21=-114.20612535\\Version=ES64L-G16RevA.03\HF=-387.2946947\RMSD=
 7.109e-09\RMSF=3.153e-04\Dipole=0.1803295,-0.8576787,1.2618791\PG=C01 
 [X(C8H12O1)]\\@


 LEARN FROM YESTERDAY,
 LIVE FOR TODAY,
 LOOK TO TOMORROW,
 REST THIS AFTERNOON.

           -- SNOOPY
 Job cpu time:       0 days  2 hours 55 minutes 30.0 seconds.
 Elapsed time:       0 days  0 hours 14 minutes 39.1 seconds.
 File lengths (MBytes):  RWF=    203 Int=      0 D2E=      0 Chk=     32 Scr=      1
 Normal termination of Gaussian 16 at Fri Jun 10 13:14:49 2022.
 Link1:  Proceeding to internal job step number  2.
 --------------------------------------------------------------------
 #N Geom=AllCheck Guess=TCheck SCRF=Check GenChk RB3LYP/def2TZVP Freq
 --------------------------------------------------------------------
 1/5=1,8=10,10=4,11=1,29=7,30=1,38=1,40=1/1,3;
 2/12=2,15=1,40=1/2;
 3/5=44,7=101,11=2,14=-4,25=1,30=1,70=2,71=2,74=-5,116=1,140=1/1,2,3;
 4/5=101/1;
 5/5=2,38=6,98=1/2;
 8/6=4,10=90,11=11/1;
 11/6=1,8=1,9=11,15=111,16=1,31=1/1,2,10;
 10/6=1,31=1/2;
 7/8=1,10=1,25=1,30=1/1,2,3,16;
 1/5=1,8=10,10=4,11=1,30=1/3;
 99//99;
 Structure from the checkpoint file:  "checkpoint.chk"
 -----------------
 ts_zmat_initalOpt
 -----------------
 Charge =  0 Multiplicity = 1
 Z-Matrix found in chk file.
 C
 C,1,R2
 C,1,R3,2,A3
 C,2,R4,1,A4,3,D4,0
 O,3,R5,1,A5,2,D5,0
 H,3,R6,1,A6,5,D6,0
 H,3,R7,1,A7,5,D7,0
 H,4,R8,2,A8,1,D8,0
 H,4,R9,2,A9,8,D9,0
 H,4,R10,2,A10,8,D10,0
 C,5,R11,3,A11,1,D11,0
 C,11,R12,5,A12,3,D12,0
 H,11,R13,5,A13,12,D13,0
 H,11,R14,5,A14,12,D14,0
 C,12,R15,11,A15,5,D15,0
 H,12,R16,11,A16,15,D16,0
 C,15,R17,12,A17,11,D17,0
 H,15,R18,12,A18,17,D18,0
 H,17,R19,15,A19,12,D19,0
 H,17,R20,15,A20,19,D20,0
 H,17,R21,15,A21,19,D21,0
      Variables:
 R2=1.24924313
 R3=1.46382444
 R4=1.48485373
 R5=1.44471287
 R6=1.09458971
 R7=1.09373943
 R8=1.09063887
 R9=1.0918703
 R10=1.09205976
 R11=1.43302426
 R12=1.49728304
 R13=1.09606044
 R14=1.09598748
 R15=1.38001761
 R16=1.08849702
 R17=1.40794761
 R18=1.08604879
 R19=1.35533935
 R20=1.08635845
 R21=1.08481269
 A3=154.20223034
 A4=146.66945843
 A5=110.61025075
 A6=111.75194529
 A7=110.15588522
 A8=111.4881106
 A9=110.53552032
 A10=110.88102977
 A11=112.409199
 A12=110.10810317
 A13=104.51906702
 A14=110.94842848
 A15=129.51240413
 A16=111.67585605
 A17=124.20822099
 A18=115.48734969
 A19=93.98473137
 A20=119.87391092
 A21=118.01216476
 D4=-28.9360966
 D5=-112.72382472
 D6=-121.68776328
 D7=118.02390857
 D8=6.74849521
 D9=-120.30357118
 D10=121.30148335
 D11=-15.52019181
 D12=-34.98768736
 D13=-119.37867854
 D14=124.33709426
 D15=145.53206261
 D16=157.50023226
 D17=-40.61801539
 D18=-154.97170578
 D19=-59.59963338
 D20=100.19560436
 D21=-114.20612535
 Recover connectivity data from disk.

 GradGradGradGradGradGradGradGradGradGradGradGradGradGradGradGradGradGrad
 Berny optimization.
 Initialization pass.
                       ----------------------------
                       !    Initial Parameters    !
                       ! (Angstroms and Degrees)  !
 ----------------------                            ----------------------
 !      Name          Value   Derivative information (Atomic Units)     !
 ------------------------------------------------------------------------
 !       R2          1.2492   calculate D2E/DX2 analytically            !
 !       R3          1.4638   calculate D2E/DX2 analytically            !
 !       R4          1.4849   calculate D2E/DX2 analytically            !
 !       R5          1.4447   calculate D2E/DX2 analytically            !
 !       R6          1.0946   calculate D2E/DX2 analytically            !
 !       R7          1.0937   calculate D2E/DX2 analytically            !
 !       R8          1.0906   calculate D2E/DX2 analytically            !
 !       R9          1.0919   calculate D2E/DX2 analytically            !
 !       R10         1.0921   calculate D2E/DX2 analytically            !
 !       R11         1.433    calculate D2E/DX2 analytically            !
 !       R12         1.4973   calculate D2E/DX2 analytically            !
 !       R13         1.0961   calculate D2E/DX2 analytically            !
 !       R14         1.096    calculate D2E/DX2 analytically            !
 !       R15         1.38     calculate D2E/DX2 analytically            !
 !       R16         1.0885   calculate D2E/DX2 analytically            !
 !       R17         1.4079   calculate D2E/DX2 analytically            !
 !       R18         1.086    calculate D2E/DX2 analytically            !
 !       R19         1.3553   calculate D2E/DX2 analytically            !
 !       R20         1.0864   calculate D2E/DX2 analytically            !
 !       R21         1.0848   calculate D2E/DX2 analytically            !
 !       A3        154.2022   calculate D2E/DX2 analytically            !
 !       A4        146.6695   calculate D2E/DX2 analytically            !
 !       A5        110.6103   calculate D2E/DX2 analytically            !
 !       A6        111.7519   calculate D2E/DX2 analytically            !
 !       A7        110.1559   calculate D2E/DX2 analytically            !
 !       A8        111.4881   calculate D2E/DX2 analytically            !
 !       A9        110.5355   calculate D2E/DX2 analytically            !
 !       A10       110.881    calculate D2E/DX2 analytically            !
 !       A11       112.4092   calculate D2E/DX2 analytically            !
 !       A12       110.1081   calculate D2E/DX2 analytically            !
 !       A13       104.5191   calculate D2E/DX2 analytically            !
 !       A14       110.9484   calculate D2E/DX2 analytically            !
 !       A15       129.5124   calculate D2E/DX2 analytically            !
 !       A16       111.6759   calculate D2E/DX2 analytically            !
 !       A17       124.2082   calculate D2E/DX2 analytically            !
 !       A18       115.4873   calculate D2E/DX2 analytically            !
 !       A19        93.9847   calculate D2E/DX2 analytically            !
 !       A20       119.8739   calculate D2E/DX2 analytically            !
 !       A21       118.0122   calculate D2E/DX2 analytically            !
 !       D4        -28.9361   calculate D2E/DX2 analytically            !
 !       D5       -112.7238   calculate D2E/DX2 analytically            !
 !       D6       -121.6878   calculate D2E/DX2 analytically            !
 !       D7        118.0239   calculate D2E/DX2 analytically            !
 !       D8          6.7485   calculate D2E/DX2 analytically            !
 !       D9       -120.3036   calculate D2E/DX2 analytically            !
 !       D10       121.3015   calculate D2E/DX2 analytically            !
 !       D11       -15.5202   calculate D2E/DX2 analytically            !
 !       D12       -34.9877   calculate D2E/DX2 analytically            !
 !       D13      -119.3787   calculate D2E/DX2 analytically            !
 !       D14       124.3371   calculate D2E/DX2 analytically            !
 !       D15       145.5321   calculate D2E/DX2 analytically            !
 !       D16       157.5002   calculate D2E/DX2 analytically            !
 !       D17       -40.618    calculate D2E/DX2 analytically            !
 !       D18      -154.9717   calculate D2E/DX2 analytically            !
 !       D19       -59.5996   calculate D2E/DX2 analytically            !
 !       D20       100.1956   calculate D2E/DX2 analytically            !
 !       D21      -114.2061   calculate D2E/DX2 analytically            !
 ------------------------------------------------------------------------
 Trust Radius=1.00D-01 FncErr=1.00D-07 GrdErr=1.00D-07 EigMax=2.50D+02 EigMin=1.00D-04
 Number of steps in this run=      2 maximum allowed number of steps=      2.
 Search for a saddle point of order  1.
 GradGradGradGradGradGradGradGradGradGradGradGradGradGradGradGradGradGrad

                          Input orientation:                          
 ---------------------------------------------------------------------
 Center     Atomic      Atomic             Coordinates (Angstroms)
 Number     Number       Type             X           Y           Z
 ---------------------------------------------------------------------
      1          6           0        0.000000    0.000000    0.000000
      2          6           0        0.000000    0.000000    1.249243
      3          6           0        0.637051    0.000000   -1.317933
      4          6           0        0.714025   -0.394750    2.489860
      5          8           0        0.388072    1.247282   -2.003129
      6          1           0        0.280902   -0.826760   -1.940632
      7          1           0        1.721539   -0.094844   -1.212318
      8          1           0        1.700751   -0.803998    2.269902
      9          1           0        0.145930   -1.151670    3.034397
     10          1           0        0.830111    0.459175    3.160628
     11          6           0       -0.676710    1.996447   -1.404340
     12          6           0       -1.728216    1.068030   -0.880668
     13          1           0       -1.068338    2.616502   -2.218900
     14          1           0       -0.295384    2.662813   -0.622204
     15          6           0       -2.530120    1.189977    0.235812
     16          1           0       -2.115135    0.416908   -1.662436
     17          6           0       -2.085814    1.676137    1.480222
     18          1           0       -3.390611    0.528132    0.267712
     19          1           0       -1.144777    0.711924    1.627488
     20          1           0       -1.408197    2.524369    1.519120
     21          1           0       -2.773150    1.634223    2.318453
 ---------------------------------------------------------------------
                    Distance matrix (angstroms):
                    1          2          3          4          5
     1  C    0.000000
     2  C    1.249243   0.000000
     3  C    1.463824   2.645039   0.000000
     4  C    2.620127   1.484854   3.828974   0.000000
     5  O    2.391409   3.504888   1.444713   4.794734   0.000000
     6  H    2.128025   3.307225   1.094590   4.472525   2.077749
     7  H    2.107702   3.005325   1.093739   3.848526   2.050565
     8  H    2.948122   2.140260   3.827588   1.090639   4.918299
     9  H    3.248877   2.129416   4.528832   1.091870   5.584825
    10  H    3.299924   2.133851   4.506177   1.092060   5.242223
    11  C    2.532965   3.388989   2.391492   4.776690   1.433024
    12  C    2.214271   2.943458   2.631801   4.411886   2.402234
    13  H    3.593181   4.473863   3.250565   5.866591   2.010585
    14  H    2.750448   3.268048   2.905864   4.478007   2.092318
    15  C    2.805915   2.973987   3.723055   4.256357   3.678585
    16  H    2.722370   3.622911   2.804821   5.089646   2.659255
    17  C    3.057959   2.685779   4.248894   3.625885   4.293922
[...]
 018837,0.00041939,-0.01563659,-0.12683820,-0.13731439,0.00008567,0.000
 56942,-0.00044008,-0.00005339,0.00002737,0.00001670,0.00000717,-0.0000
 2282,-0.00001103,-0.00028863,-0.00518356,-0.00428969,0.00125082,0.0120
 9392,0.01065959,0.02125813,0.13651535,0.15514027,0.00083833,0.00290922
 ,0.00148041,-0.00289407,0.00268766,0.00339763,-0.01800804,0.02363425,-
 0.01759509,-0.00010500,-0.00030958,0.00048791,-0.11133460,0.04959336,0
 .03881131,-0.00014749,-0.00514951,0.00300166,0.00025419,0.00144688,0.0
 0105674,-0.00011651,0.00005259,-0.00015208,0.00020626,-0.00012026,-0.0
 0000018,0.00025416,-0.00004097,-0.00004751,0.42633916,0.01139782,-0.01
 244775,0.00900179,0.00167166,-0.00228423,-0.00628760,0.02773103,-0.032
 40044,-0.00295584,-0.00055549,0.00059178,0.00066769,0.03045011,-0.1043
 9218,-0.00496786,0.00119320,-0.00092189,0.00102868,-0.00109838,-0.0010
 7602,-0.00089890,-0.00021647,0.00011875,-0.00036404,-0.00009776,0.0000
 4291,-0.00004909,-0.00013091,0.00006125,-0.00010642,0.02989059,0.54166
 829,-0.01031183,0.01456185,-0.00811641,-0.00115370,0.00099735,0.002900
 62,-0.01477351,0.00476168,0.00942229,0.00022669,-0.00044704,-0.0005300
 9,0.05300734,-0.02795717,-0.09852058,-0.00006605,0.00136936,-0.0004944
 6,-0.00143968,0.00522207,-0.00371214,0.00016026,-0.00004820,0.00025931
 ,0.00001506,-0.00001801,0.00003969,-0.00001920,0.00001233,-0.00023884,
 0.07951816,-0.01572851,0.55366708,0.04255922,-0.03075864,0.06427640,0.
 02402865,-0.01696949,-0.06459814,-0.02286949,0.00813808,0.00302272,-0.
 00876523,0.00460922,0.00827407,-0.03467870,-0.00307158,0.01546037,0.00
 031639,-0.00034298,-0.00107537,-0.00071365,-0.00090930,0.00351926,-0.0
 0176517,0.00114400,-0.00284187,0.00028792,0.00002104,0.00054160,0.0001
 6309,-0.00024727,0.00105261,-0.11807841,-0.07427478,0.03453351,0.39115
 721,-0.02955978,0.00115224,-0.03203853,-0.00974421,0.00630771,0.027723
 62,0.01675808,-0.00009058,-0.00204829,0.00540834,0.00141409,-0.0041047
 2,0.01444704,0.00779117,-0.00369515,-0.00030063,-0.00013512,-0.0001173
 1,0.00064281,-0.00072517,-0.00144484,0.00081348,-0.00045749,0.00129430
 ,-0.00047663,0.00010994,-0.00091631,0.00013822,0.00000491,0.00009122,-
 0.07172092,-0.13523056,0.01731741,0.18696088,0.35636082,0.01025645,-0.
 00992889,-0.01243532,-0.00808671,0.00461484,0.00115191,0.00026687,0.00
 112820,0.00330353,0.00303886,-0.00073234,-0.00064175,0.03097134,0.0042
 7488,-0.01324270,0.00004736,-0.00056440,0.00033238,0.00059030,0.001143
 91,-0.00098018,0.00035294,-0.00017470,0.00073598,-0.00017072,0.0000754
 4,-0.00024413,-0.00002063,0.00003620,-0.00001425,0.01527213,0.01494354
 ,-0.09409874,-0.15879622,0.13908258,0.64147331,-0.00045549,-0.00152787
 ,0.00187240,0.00105082,-0.00066399,-0.00115837,-0.00404544,-0.00173796
 ,0.00209334,-0.00003960,0.00027183,0.00006870,-0.01693981,0.02765521,-
 0.01176418,-0.00004124,0.00020567,-0.00014518,-0.00028252,0.00137191,-
 0.00085610,0.00000801,-0.00001161,0.00000088,-0.00002876,0.00001764,-0
 .00001612,-0.00001748,-0.00000373,0.00007561,-0.07107531,0.03914554,-0
 .06689694,0.00453322,-0.01363083,0.02108020,0.08865731,0.00120724,-0.0
 0123912,0.00022709,0.00047750,-0.00022058,-0.00053054,0.00355889,0.000
 27885,-0.00008908,-0.00013533,0.00009516,0.00004767,0.01516304,-0.0190
 3680,0.00970256,0.00005542,-0.00026737,0.00005634,0.00006849,-0.000982
 67,0.00062991,0.00000064,-0.00000273,-0.00002659,0.00001259,-0.0000055
 8,0.00002558,0.00000852,-0.00000506,0.00006647,0.04157065,-0.11764952,
 0.09646941,0.00170004,-0.00880847,0.01717756,-0.05706700,0.13661523,0.
 00059444,0.00201350,-0.00152869,-0.00074966,0.00077847,0.00176746,0.00
 276547,-0.00184346,-0.00053949,0.00010464,-0.00043978,-0.00007356,0.00
 822618,-0.01150503,0.01156931,0.00003179,-0.00011380,0.00000822,0.0001
 2233,-0.00059868,0.00036630,-0.00001018,0.00000045,0.00001168,-0.00002
 002,0.00000761,0.00001092,-0.00004237,-0.00000955,-0.00010646,-0.07358
 077,0.10200363,-0.19084352,0.00037651,0.00663246,-0.01011114,0.0697448
 6,-0.10947717,0.20450728,-0.00038155,0.00136832,-0.00229412,-0.0001609
 6,0.00046944,0.00127616,0.00139201,-0.00201892,0.00347153,0.00011425,-
 0.00022602,-0.00012558,0.00286055,0.02381899,0.02340650,-0.00010744,0.
 00091164,-0.00054262,-0.00009367,-0.00011295,0.00018325,0.00002964,0.0
 0000248,0.00004845,-0.00003105,0.00000506,0.00000241,-0.00001990,-0.00
 000344,-0.00005863,-0.08627422,-0.05786139,-0.06927658,-0.00700752,-0.
 01435456,-0.01903910,-0.00270472,-0.00667404,-0.00819108,0.09330240,-0
 .00048724,0.00001855,-0.00027378,-0.00023417,0.00027593,0.00079523,-0.
 00103333,0.00139054,-0.00322426,0.00015870,0.00004180,0.00000236,0.008
 32521,-0.01460011,-0.01720218,0.00007190,-0.00069516,0.00052636,0.0000
 2580,-0.00013471,0.00000855,0.00003217,-0.00001428,0.00003190,-0.00001
 238,0.00000937,-0.00001941,0.00001991,-0.00003468,0.00006213,-0.056952
 75,-0.13205824,-0.09321697,-0.01049572,-0.01292707,-0.01542320,0.00582
 705,0.01147642,0.01201435,0.05692578,0.14804399,0.00045979,0.00046809,
 0.00021514,-0.00007081,0.00057948,0.00023853,-0.00066122,0.00171972,-0
 .00217391,-0.00002763,-0.00009219,-0.00002538,0.00946419,-0.01398196,-
 0.00792571,0.00005931,-0.00068317,0.00031317,0.00006398,-0.00027685,0.
 00019826,0.00000914,-0.00001880,0.00001230,0.00001056,-0.00000889,0.00
 000917,-0.00000805,-0.00000310,0.00001427,-0.07062834,-0.09873493,-0.1
 7342535,0.00274980,0.00770775,0.00967528,-0.01177203,-0.01261996,-0.01
 734949,0.06766194,0.11422313,0.19113749,-0.02495374,0.01213013,-0.0207
 3281,-0.00482141,0.00383749,0.00836598,0.00529262,-0.00467709,0.002307
 46,-0.00258953,0.00107085,0.00093231,-0.00587997,0.00065241,0.00447866
 ,-0.00012782,0.00014044,0.00081570,0.00040898,0.00039534,-0.00152657,-
 0.00006000,0.00006155,-0.00106102,0.00018042,-0.00014419,-0.00004873,0
 .00036692,-0.00008599,-0.00008525,-0.01201935,0.00757489,0.00989137,-0
 .16910996,-0.01866501,0.15830366,0.00057782,0.00000883,-0.00040179,0.0
 0057169,0.00049967,-0.00037644,0.53729166,0.02167678,-0.00855508,0.017
 38661,0.01412235,-0.00495426,-0.01235253,-0.00364662,-0.00105188,0.000
 87507,0.00009412,0.00032416,-0.00033061,-0.00398987,0.00072099,0.00045
 265,0.00004938,0.00031554,-0.00062818,-0.00005570,0.00032264,0.0005071
 2,0.00013663,0.00004542,0.00050306,-0.00014789,0.00013713,0.00034549,-
 0.00012473,0.00001632,0.00027189,-0.00530989,0.00580100,0.01713240,-0.
 03535882,-0.07255613,-0.02435510,-0.00205808,-0.00154558,0.00124729,0.
 00103886,0.00016625,-0.00063470,0.19680527,0.33231938,0.03492545,-0.01
 813966,0.05105213,0.03562169,-0.02419724,-0.06242176,-0.00774418,0.004
 54756,-0.00143426,-0.01268892,0.00498634,0.00735512,-0.00366292,0.0033
 4521,0.00032952,-0.00001525,-0.00000038,-0.00047479,-0.00072179,-0.000
 62496,0.00164172,-0.00182988,0.00124220,-0.00344760,0.00041316,-0.0001
 1763,0.00081851,0.00018649,-0.00024286,0.00077289,0.02108978,-0.002718
 61,-0.00171333,0.10177633,-0.02434492,-0.28719053,-0.00375912,-0.00242
 598,0.00301498,0.00002701,-0.00036295,-0.00021871,-0.08519847,0.111944
 29,0.63773791,0.00001258,-0.00307635,-0.00162328,-0.00024886,-0.000128
 85,-0.00113220,-0.00070275,-0.00005277,-0.00073395,0.00013341,0.000377
 73,0.00005539,0.00261903,0.00103115,0.00025484,-0.00053024,0.00043291,
 0.00025866,0.00017459,0.00035265,0.00013581,-0.00003602,0.00003906,-0.
 00002171,-0.00005012,0.00002537,-0.00007507,0.00001994,-0.00002550,0.0
 0004983,-0.00904387,-0.01550138,-0.01664527,-0.08348266,-0.06609490,-0
 .06805567,0.00070132,0.00028371,0.00066429,-0.00229445,-0.00312491,0.0
 0228426,0.00927947,0.01106215,0.01892817,0.08529323,0.00090529,0.00305
 681,0.00247709,0.00047379,-0.00006133,0.00050884,-0.00017387,-0.000138
 08,0.00039332,-0.00027604,-0.00039812,0.00006311,0.00035108,0.00222272
 ,0.00096629,0.00022964,0.00028204,-0.00023370,-0.00017430,-0.00017217,
 0.00001750,0.00002298,-0.00002145,-0.00000919,0.00006042,-0.00002081,0
 .00011260,-0.00001456,0.00001338,-0.00002770,-0.00872252,-0.01471015,-
 0.01699979,-0.06303731,-0.13901052,-0.11598750,0.00095869,0.00051187,-
 0.00023500,-0.00340898,-0.00144221,0.00193013,-0.00368244,-0.00080965,
 -0.00416428,0.07397396,0.14745035,0.00022605,-0.00115719,-0.00101518,-
 0.00036986,0.00002033,-0.00066794,-0.00006412,-0.00050678,-0.00043392,
 0.00007097,0.00019201,0.00012888,-0.00133378,0.00011416,0.00034898,0.0
 0011783,0.00017077,0.00057056,0.00007242,0.00026028,0.00021528,-0.0000
 4895,0.00004528,-0.00004140,-0.00003090,-0.00000003,-0.00006376,0.0000
 4191,-0.00001633,0.00001088,0.00529359,0.00699083,0.00751180,-0.063001
 60,-0.11852118,-0.18655541,-0.00060557,-0.00050330,0.00111410,0.002447
 37,0.00104203,0.00025337,-0.01024363,-0.01496642,-0.01938100,0.0638560
 6,0.12795628,0.20096199,-0.01853673,0.01059965,-0.03981450,-0.06407280
 ,0.04194071,0.05716325,0.00464109,-0.00149021,0.00009027,0.01260485,-0
 .00592642,-0.00437867,0.00081169,-0.00246052,0.00174368,-0.00012579,0.
 00010376,0.00031343,0.00076942,0.00017854,-0.00065112,0.00099449,-0.00
 097867,0.00240884,-0.00066581,0.00029084,-0.00102845,-0.00055756,0.000
 02536,-0.00131116,-0.00703204,0.00484914,-0.00071095,0.04162900,-0.001
 85253,0.00261429,0.00192105,0.00107199,-0.00135599,-0.00027388,-0.0002
 2167,-0.00024596,-0.10794059,-0.04784445,-0.01473573,-0.00075622,0.000
 37247,0.00512471,0.41891182,0.00230774,-0.00167985,0.02318824,0.045792
 29,-0.02864722,-0.03657087,0.00051515,0.00238558,-0.00095477,-0.009786
 77,0.00392487,0.00287117,-0.00024998,0.00002817,-0.00051872,-0.0001024
 4,-0.00021300,0.00017628,-0.00049235,0.00005244,-0.00011819,-0.0006571
 1,0.00078298,-0.00176323,0.00039258,-0.00032315,0.00056684,0.00057320,
 0.00003386,0.00077167,0.00500437,-0.00020692,0.00166574,-0.00605811,0.
 00680097,-0.00092146,-0.00109415,-0.00093934,0.00012711,-0.00023627,-0
 .00046865,-0.00043682,-0.05933175,-0.10885280,-0.10459679,-0.00289068,
 0.00405031,-0.00205086,0.21876501,0.38643865,-0.01845140,0.00805646,-0
 .04245312,-0.03353687,0.01982708,0.03476764,0.00664614,-0.00505489,0.0
 0421890,0.00531237,-0.00200288,-0.00174354,-0.00025208,-0.00003016,0.0
 0137337,-0.00002573,-0.00002702,0.00056623,0.00089781,0.00066517,-0.00
 221701,0.00050348,-0.00027124,0.00093934,0.00002401,0.00003908,-0.0004
 3818,0.00038106,-0.00004361,-0.00015602,-0.00688853,0.00229356,-0.0007
 5453,0.03179104,-0.02586774,-0.04039645,0.00136887,0.00085598,-0.00144
 984,-0.00003457,-0.00011595,-0.00050777,-0.06728521,-0.08691133,-0.253
 10949,0.00265639,0.00006432,-0.00156898,-0.11139064,0.12938523,0.59549
 865,0.00001302,0.00027521,0.00008018,-0.00014336,0.00005771,0.00014037
 ,0.00013915,-0.00024815,0.00000344,0.00009507,-0.00005351,-0.00015813,
 -0.00039421,0.00020198,0.00015614,-0.00000882,0.00007027,-0.00010211,-
 0.00004157,0.00001632,0.00003709,0.00004458,0.00001805,0.00008070,-0.0
 0004588,0.00000632,-0.00003390,0.00000765,0.00003404,0.00001684,0.0029
 4535,-0.00027967,0.00254908,-0.01275245,-0.01421781,0.00278159,-0.0005
 4065,-0.00058683,0.00023480,0.00002294,0.00014348,-0.00010611,-0.21693
 705,-0.13366672,0.00906989,-0.00083253,0.00273951,-0.00124978,-0.00556
 228,-0.00798660,-0.00006548,0.23095021,0.00067498,-0.00047295,0.000893
 47,0.00038542,-0.00013716,-0.00046234,-0.00025050,-0.00028215,0.000221
 83,0.00000757,-0.00005253,0.00012444,-0.00122852,-0.00022029,0.0005842
 1,-0.00000358,0.00000750,0.00008051,-0.00000880,0.00000973,0.00000231,
 -0.00004228,-0.00001325,-0.00004036,0.00000577,0.00001098,0.00000627,-
 0.00000037,-0.00004386,0.00000928,-0.00242172,0.00458427,-0.00248312,0
 .00090937,0.00421995,-0.00227643,0.00064902,0.00050136,-0.00010793,0.0
 0020448,-0.00005557,-0.00014451,-0.14333968,-0.14733161,-0.00029498,0.
 00325124,-0.00190964,0.00193729,-0.00997514,-0.00552719,0.00048077,0.1
 5325355,0.14492355,0.00021349,-0.00019666,0.00076410,0.00049313,-0.000
 42698,-0.00069986,-0.00028330,0.00083999,-0.00069161,-0.00006826,0.000
 06652,0.00002037,0.00241355,-0.00011100,-0.00113785,0.00002928,-0.0000
 8987,-0.00005957,-0.00001878,-0.00010754,0.00014262,0.00001995,0.00003
 225,-0.00000106,-0.00001287,0.00001988,-0.00000309,0.00003402,0.000006
 83,0.00007043,0.00278657,-0.00446748,-0.00040404,0.02266047,0.01791464
 ,-0.00252364,-0.00039911,-0.00006857,0.00002886,0.00005995,0.00027098,
 0.00019179,0.00927582,0.00175181,-0.05432547,-0.00102449,0.00214289,-0
 .00022238,-0.02184472,-0.02101428,0.00130700,-0.01185816,0.00377777,0.
 06033138,0.01231038,-0.00473324,0.06700444,0.02780295,-0.03404730,-0.0
 5725457,-0.00610882,0.00788912,-0.00322806,-0.02152439,0.01137149,0.00
 360879,0.00021316,0.00059685,-0.00204450,-0.00004355,-0.00007905,-0.00
 022920,-0.00121050,-0.00054897,0.00175579,-0.00036701,0.00133334,-0.00
 310614,0.00128518,-0.00008804,0.00109252,0.00100116,-0.00053290,0.0018
 0431,0.00464336,-0.00262334,0.00110949,-0.03955729,0.01402685,0.008795
 79,-0.00112390,-0.00067644,0.00104069,0.00061505,0.00002832,0.00013826
 ,-0.01258925,-0.00205050,-0.06961122,-0.00054753,-0.00024181,0.0004196
 0,0.02748109,-0.02696982,0.03640524,0.00088343,-0.00093635,-0.00034942
 ,0.01571260,-0.01032227,0.00834336,-0.05646777,-0.04853473,0.00550874,
 0.05112583,0.00535766,-0.00133452,0.00432110,0.01754403,-0.00616112,-0
 .00330410,0.00020448,-0.00120616,0.00085201,0.00012918,-0.00013369,0.0
 0117244,0.00131461,0.00049793,-0.00152772,0.00059196,-0.00000878,0.002
 53204,-0.00071157,0.00024851,-0.00132057,-0.00088741,0.00083535,-0.001
 18043,-0.00442773,0.00224275,-0.00110913,0.03208104,-0.01349093,-0.008
 43268,0.00104217,0.00068246,-0.00055840,-0.00028998,-0.00014868,0.0002
 5705,0.00361141,0.00750802,0.05008204,0.00004286,0.00048909,-0.0003491
 4,-0.03957088,-0.00924499,-0.02792361,-0.00054125,0.00022292,0.0006898
 6,0.02865480,0.02605404,0.00726925,-0.00318316,-0.01749488,-0.00363258
 ,0.00243481,-0.01287643,0.00023676,-0.00026791,-0.00209271,-0.00748494
 ,0.00378046,0.00050140,0.00097294,-0.00137827,0.00053026,-0.00007100,-
 0.00002757,0.00000358,0.00020166,0.00001700,0.00027547,-0.00101428,0.0
 0065379,-0.00102387,-0.00003822,0.00008142,0.00002060,-0.00037937,0.00
 016511,-0.00013056,-0.00339512,0.00113107,-0.00048906,0.00510455,-0.00
 335268,-0.00657412,0.00099126,0.00050048,-0.00041658,0.00015128,0.0003
 9878,0.00005749,-0.00950998,0.01016815,-0.00264651,-0.00025540,0.00041
 817,0.00023262,-0.01326694,0.01211543,-0.02983965,0.00007544,-0.000326
 10,0.00041232,0.01559190,-0.01319382,0.06883178,0.00207370,-0.00107268
 ,0.00456539,0.00540917,-0.00151718,-0.00500671,-0.00126343,-0.00005648
 ,-0.00053187,-0.00078942,0.00054926,0.00054349,0.00007635,0.00029307,-
 0.00019095,0.00003394,-0.00000104,-0.00006112,-0.00014759,-0.00009202,
 0.00030974,-0.00012879,-0.00000841,-0.00025101,0.00005081,-0.00002726,
 0.00008324,-0.00006025,-0.00005099,-0.00008262,0.00079089,-0.00110648,
 0.00039474,-0.00460189,0.00396001,0.00071874,-0.00018920,-0.00001900,0
 .00041394,0.00035100,0.00035075,0.00101096,-0.00818093,-0.01071060,-0.
 00700748,0.00002435,-0.00003024,-0.00018180,-0.14331773,-0.13983673,0.
 00557623,0.00261574,-0.00351120,-0.00189514,-0.00233890,0.01558770,0.0
 0110643,0.15955498,-0.00203180,0.00159486,-0.00546451,-0.00539323,0.00
 360625,0.00589564,0.00133445,-0.00053587,0.00041295,0.00123281,-0.0008
 7212,-0.00062061,-0.00002350,0.00013657,0.00029745,-0.00003832,0.00002
 285,0.00009947,0.00017810,0.00013181,-0.00042098,0.00012642,-0.0000701
 0,0.00033430,-0.00008404,0.00005808,-0.00003321,0.00010656,-0.00008008
 ,0.00011303,-0.00117306,-0.00102026,-0.00055090,0.00447847,-0.00229717
 ,-0.00028368,0.00041654,0.00028451,0.00004276,0.00014955,0.00078494,0.
 00056938,-0.00324882,-0.00277503,0.00780313,0.00010276,0.00018440,-0.0
 0013177,-0.14942769,-0.20556982,-0.01533226,-0.00165614,0.00341194,-0.
 00165508,0.00156043,-0.01984277,-0.00089241,0.15198329,0.22221260,0.00
 056280,-0.00038937,0.00088265,0.00125674,-0.00111737,-0.00091670,-0.00
 023468,-0.00018082,0.00024104,-0.00000480,0.00019414,0.00011169,-0.000
 14020,0.00058319,0.00017423,-0.00000343,0.00004511,-0.00006590,-0.0000
 5480,-0.00000195,0.00005329,-0.00001978,-0.00006324,-0.00002075,0.0000
 1648,-0.00003436,0.00001362,-0.00009298,-0.00000727,-0.00007443,0.0004
 3905,-0.00039648,-0.00080190,-0.00105959,0.00176488,0.00066203,0.00008
 906,0.00000512,0.00004147,0.00079581,0.00038954,-0.00075398,-0.0192245
 7,-0.02363632,0.00357607,-0.00028191,0.00071151,-0.00021455,0.00391213
 ,-0.00723293,-0.05169926,-0.00053495,-0.00336283,-0.00411329,-0.000338
 12,0.00432874,0.00047143,0.00245971,0.00974474,0.04981331,0.00017471,0
 .00019487,0.00216106,0.00092861,-0.00008617,-0.00056554,-0.00023478,0.
 00053776,-0.00079184,0.00005569,-0.00005464,0.00012888,0.00003695,-0.0
 0015286,0.00017837,-0.00000749,0.00006222,-0.00002997,-0.00009546,-0.0
 0003358,0.00026942,0.00001166,-0.00002214,-0.00008951,-0.00010522,0.00
 013989,-0.00004385,-0.00019243,-0.00008746,-0.00006344,-0.00014279,-0.
 00015793,-0.00011201,-0.00129229,-0.00253789,-0.00092145,0.00003457,-0
 .00002891,0.00003193,0.00008984,0.00015345,-0.00001560,0.01124003,-0.0
 0002170,-0.01506300,0.00026733,-0.00032577,-0.00054051,-0.16092304,-0.
 01765759,0.14636788,-0.00045832,0.00237673,-0.00023199,-0.00653723,-0.
 00087606,0.00734636,-0.00996279,0.00140723,0.01245805,0.16711246,-0.00
 092836,0.00043755,-0.00482336,-0.00255720,0.00139803,0.00226095,0.0007
 0160,-0.00121199,0.00128192,0.00023978,-0.00000898,-0.00011100,-0.0003
 0474,0.00081966,0.00015140,0.00000767,-0.00003036,0.00004558,0.0001610
 4,0.00008942,-0.00048133,0.00000996,-0.00001809,0.00011055,0.00012282,
 -0.00010282,0.00006358,0.00014958,-0.00000272,0.00010297,-0.00044067,-
 0.00071286,-0.00095076,0.00148184,0.00156741,-0.00339677,0.00023396,0.
 00025694,0.00002116,0.00029195,0.00037155,0.00018114,0.00638669,0.0007
 5518,-0.00171953,-0.00008021,0.00043314,-0.00052628,-0.01844930,-0.042
 82489,0.00191304,0.00242025,-0.00184600,0.00062404,0.00806655,-0.00106
 153,-0.00924273,-0.01468377,0.00063439,0.01865594,0.01717056,0.0410569
 6,-0.00035168,0.00034044,0.00150184,0.00110533,-0.00093692,-0.00035594
 ,-0.00020252,0.00048317,-0.00047562,0.00006422,-0.00003700,-0.00012299
 ,0.00036202,-0.00016556,0.00000599,-0.00001359,0.00001863,-0.00000464,
 -0.00003640,-0.00003797,0.00012851,0.00002705,-0.00002183,0.00004093,-
 0.00002335,0.00001749,-0.00000174,-0.00005879,0.00001698,0.00000296,-0
 .00034733,-0.00038505,0.00034221,-0.00376642,-0.00307717,-0.00232604,-
 0.00001245,-0.00002296,-0.00002180,0.00003062,0.00007333,0.00006404,0.
 02132351,0.00122937,-0.01993540,0.00070523,-0.00010490,-0.00118394,0.1
 3736424,0.00531121,-0.21233730,-0.00111695,0.00138047,0.00091297,-0.00
 260561,0.00000623,0.00224741,-0.00197390,0.00007255,0.00261992,-0.1504
 7324,-0.00416051,0.22889862\\0.00026795,-0.00179985,-0.00000453,-0.000
 29757,0.00168502,-0.00000146,0.00000762,0.00014760,-0.00000443,-0.0000
 0264,0.00000378,-0.00000319,-0.00000003,-0.00002138,0.00001043,0.00000
 058,0.00000030,-0.00000001,-0.00000159,-0.00000027,-0.00000124,-0.0000
 0301,0.00000061,-0.00000163,0.00000002,0.00000032,0.00000078,-0.000000
 06,-0.00000083,0.00000230,-0.00000118,0.00000323,-0.00000061,0.0000065
 3,-0.00000384,0.00000046,0.00000125,-0.00000163,0.00000236,-0.00000049
 ,-0.00000003,-0.00000054,0.00000414,0.00000233,0.00000915,-0.00000017,
 0.00000014,0.00000066,0.00000010,-0.00000510,-0.00000624,0.00000070,-0
 .00000062,0.00000082,0.00001983,-0.00001261,-0.00000487,-0.00000240,-0
 .00000029,0.00000191,0.00000041,0.00000311,-0.00000013\\\@


 IT IS A PROFOUNDLY ERRONEOUS TRUISM ... THAT WE SHOULD CULTIVATE
 THE HABIT OF THINKING OF WHAT WE ARE DOING.
 THE PRECISE OPPOSITE IS THE CASE.
 CIVILIZATION ADVANCES BY EXTENDING THE NUMBER OF IMPORTANT OPERATIONS
 WHICH WE CAN PERFORM WITHOUT THINKING ABOUT THEM.

                                    -- ALFRED NORTH WHITEHEAD
 Job cpu time:       0 days  2 hours 39 minutes 15.3 seconds.
 Elapsed time:       0 days  0 hours 13 minutes 17.2 seconds.
 File lengths (MBytes):  RWF=    204 Int=      0 D2E=      0 Chk=     32 Scr=      1
 Normal termination of Gaussian 16 at Fri Jun 10 13:28:06 2022.
