 Entering Gaussian System, Link 0=g16
 Input=int_initalOpt_zmat_sp.gjf
 Output=int_initalOpt_zmat_sp.out
 Initial command:
 /software/gaussian/g16-a03/l1.exe "/local_scratch/11171289/Gau-16790.inp" -scrdir="/local_scratch/11171289/"
 Entering Link 1 = /software/gaussian/g16-a03/l1.exe PID=     16791.
  
 Copyright (c) 1988,1990,1992,1993,1995,1998,2003,2009,2016,
            Gaussian, Inc.  All Rights Reserved.
  
 This is part of the Gaussian(R) 16 program.  It is based on
 the Gaussian(R) 09 system (copyright 2009, Gaussian, Inc.),
 the Gaussian(R) 03 system (copyright 2003, Gaussian, Inc.),
 the Gaussian(R) 98 system (copyright 1998, Gaussian, Inc.),
 the Gaussian(R) 94 system (copyright 1995, Gaussian, Inc.),
 the Gaussian 92(TM) system (copyright 1992, Gaussian, Inc.),
 the Gaussian 90(TM) system (copyright 1990, Gaussian, Inc.),
 the Gaussian 88(TM) system (copyright 1988, Gaussian, Inc.),
 the Gaussian 86(TM) system (copyright 1986, Carnegie Mellon
 University), and the Gaussian 82(TM) system (copyright 1983,
 Carnegie Mellon University). Gaussian is a federally registered
 trademark of Gaussian, Inc.
  
 This software contains proprietary and confidential information,
 including trade secrets, belonging to Gaussian, Inc.
  
 This software is provided under written license and may be
 used, copied, transmitted, or stored only in accord with that
 written license.
  
 The following legend is applicable only to US Government
 contracts under FAR:
  
                    RESTRICTED RIGHTS LEGEND
  
 Use, reproduction and disclosure by the US Government is
 subject to restrictions as set forth in subparagraphs (a)
 and (c) of the Commercial Computer Software - Restricted
 Rights clause in FAR 52.227-19.
  
 Gaussian, Inc.
 340 Quinnipiac St., Bldg. 40, Wallingford CT 06492
  
  
 ---------------------------------------------------------------
 Warning -- This program may not be used in any manner that
 competes with the business of Gaussian, Inc. or will provide
 assistance to any competitor of Gaussian, Inc.  The licensee
 of this program is prohibited from giving any competitor of
 Gaussian, Inc. access to this program.  By using this program,
 the user acknowledges that Gaussian, Inc. is engaged in the
 business of creating and licensing software in the field of
 computational chemistry and represents and warrants to the
 licensee that it is not a competitor of Gaussian, Inc. and that
 it will not use this program in any manner prohibited above.
 ---------------------------------------------------------------
  

 Cite this work as:
 Gaussian 16, Revision A.03,
 M. J. Frisch, G. W. Trucks, H. B. Schlegel, G. E. Scuseria, 
 M. A. Robb, J. R. Cheeseman, G. Scalmani, V. Barone, 
 G. A. Petersson, H. Nakatsuji, X. Li, M. Caricato, A. V. Marenich, 
 J. Bloino, B. G. Janesko, R. Gomperts, B. Mennucci, H. P. Hratchian, 
 J. V. Ortiz, A. F. Izmaylov, J. L. Sonnenberg, D. Williams-Young, 
 F. Ding, F. Lipparini, F. Egidi, J. Goings, B. Peng, A. Petrone, 
 T. Henderson, D. Ranasinghe, V. G. Zakrzewski, J. Gao, N. Rega, 
 G. Zheng, W. Liang, M. Hada, M. Ehara, K. Toyota, R. Fukuda, 
 J. Hasegawa, M. Ishida, T. Nakajima, Y. Honda, O. Kitao, H. Nakai, 
 T. Vreven, K. Throssell, J. A. Montgomery, Jr., J. E. Peralta, 
 F. Ogliaro, M. J. Bearpark, J. J. Heyd, E. N. Brothers, K. N. Kudin, 
 V. N. Staroverov, T. A. Keith, R. Kobayashi, J. Normand, 
 K. Raghavachari, A. P. Rendell, J. C. Burant, S. S. Iyengar, 
 J. Tomasi, M. Cossi, J. M. Millam, M. Klene, C. Adamo, R. Cammi, 
 J. W. Ochterski, R. L. Martin, K. Morokuma, O. Farkas, 
 J. B. Foresman, and D. J. Fox, Gaussian, Inc., Wallingford CT, 2016.
 
 ******************************************
 Gaussian 16:  ES64L-G16RevA.03 25-Dec-2016
                10-Jun-2022 
 ******************************************
 %nprocshared=12
 Will use up to   12 processors via shared memory.
 %chk=checkpoint.chk
 %mem=12GB
 --------------------------
 # sp B3LYP/Def2TZVP NoSymm
 --------------------------
 1/38=1,172=1/1;
 2/12=2,15=1,17=6,18=5,40=1/2;
 3/5=44,7=101,11=2,25=1,30=1,74=-5/1,2,3;
 4//1;
 5/5=2,38=5/2;
 6/7=2,8=2,9=2,10=2,28=1/1;
 99/5=1,9=1/99;
 ----------------------------
 int_initalOpt_zmat_AlignedSp
 ----------------------------
 Symbolic Z-matrix:
 Charge =  0 Multiplicity = 1
 C
 C                    1    R2
 C                    1    R3       2    A3
 H                    1    R4       2    A4       3    D4       0
 H                    1    R5       2    A5       3    D5       0
 C                    2    R6       1    A6       3    D6       0
 C                    3    R7       1    A7       2    D7       0
 H                    2    R8       1    A8       6    D8       0
 H                    2    R9       1    A9       6    D9       0
 H                    3    R10      1    A10      7    D10      0
 C                    7    R11      3    A11      1    D11      0
 C                    6    R12      2    A12      1    D12      0
 H                    7    R13      3    A13      11   D13      0
 H                    6    R14      2    A14      12   D14      0
 C                    12   R15      6    A15      2    D15      0
 H                    11   R16      7    A16      3    D16      0
 H                    11   R17      7    A17      16   D17      0
 H                    12   R18      6    A18      15   D18      0
 H                    15   R19      12   A19      6    D19      0
 H                    15   R20      12   A20      19   D20      0
       Variables:
  R2                    1.547                    
  R3                    1.54464                  
  R4                    1.09012                  
  R5                    1.08992                  
  R6                    1.55024                  
  R7                    1.49096                  
  R8                    1.09047                  
  R9                    1.08842                  
  R10                   1.09522                  
  R11                   1.32782                  
  R12                   1.49691                  
  R13                   1.08843                  
  R14                   1.09391                  
  R15                   1.32766                  
  R16                   1.08255                  
  R17                   1.08329                  
  R18                   1.08748                  
  R19                   1.08276                  
  R20                   1.08259                  
  A3                   88.90092                  
  A4                  111.25178                  
  A5                  117.8448                   
  A6                   89.56143                  
  A7                  121.87744                  
  A8                  112.00737                  
  A9                  117.33077                  
  A10                 109.2684                   
  A11                 126.32445                  
  A12                 117.64032                  
  A13                 115.22677                  
  A14                 114.97587                  
  A15                 127.63946                  
  A16                 121.35263                  
  A17                 122.02579                  
  A18                 114.39828                  
  A19                 122.62297                  
  A20                 120.97448                  
  D4                 -112.93112                  
  D5                  120.45747                  
  D6                   18.58715                  
  D7                 -143.54254                  
  D8                 -112.64882                  
  D9                  121.29155                  
  D10                -127.44076                  
  D11                  -6.20754                  
  D12                  98.71464                  
  D13                -178.924                    
  D14                 129.20118                  
  D15                  14.03155                  
  D16                -178.9778                   
  D17                 179.73645                  
  D18                 179.23741                  
  D19                  -0.66026                  
  D20                 179.75198                  
 
                          Input orientation:                          
 ---------------------------------------------------------------------
 Center     Atomic      Atomic             Coordinates (Angstroms)
 Number     Number       Type             X           Y           Z
 ---------------------------------------------------------------------
      1          6           0        0.000000    0.000000    0.000000
      2          6           0        0.000000    0.000000    1.547003
      3          6           0        1.544356    0.000000    0.029628
      4          1           0       -0.395855    0.935701   -0.395133
      5          1           0       -0.488512   -0.830738   -0.509079
      6          6           0        1.469336    0.494119    1.535137
      7          6           0        2.351125    0.752344   -0.973397
      8          1           0       -0.071610   -1.008470    1.955628
      9          1           0       -0.739387    0.623091    2.046725
     10          1           0        1.905365   -1.033716    0.054300
     11          6           0        1.883761    1.389944   -2.040231
     12          6           0        1.711194    1.958352    1.730734
     13          1           0        3.425762    0.749509   -0.800709
     14          1           0        2.146516   -0.054587    2.196180
     15          6           0        0.851363    2.870948    2.167236
     16          1           0        2.547197    1.899253   -2.727529
     17          1           0        0.825888    1.424982   -2.270854
     18          1           0        2.720926    2.282903    1.490462
     19          1           0       -0.171249    2.630986    2.430009
     20          1           0        1.147742    3.905829    2.282078
 ---------------------------------------------------------------------
                    Distance matrix (angstroms):
                    1          2          3          4          5
     1  C    0.000000
     2  C    1.547003   0.000000
     3  C    1.544640   2.165054   0.000000
     4  H    1.090122   2.191832   2.195535   0.000000
     5  H    1.089923   2.270736   2.261169   1.772534   0.000000
     6  C    2.181684   1.550239   1.586297   2.720270   3.125257
     7  C    2.653547   3.527921   1.490959   2.813166   3.284095
     8  H    2.201504   1.090465   2.708843   3.067737   2.506028
     9  H    2.263630   1.088420   3.110049   2.485641   2.951050
    10  H    2.168394   2.631947   1.095219   3.062058   2.467639
    11  C    3.105325   4.283544   2.516239   2.847689   3.592149
    12  C    3.123902   2.607122   2.599372   3.163033   4.199344
    13  H    3.597046   4.220113   2.188815   3.847585   4.231284
    14  H    3.071436   2.243199   2.249339   3.762875   3.855414
    15  C    3.696494   3.058079   3.645812   3.444774   4.760295
    16  H    4.187456   5.326067   3.494963   3.876861   4.646493
    17  H    2.805253   4.157968   2.799820   2.291371   3.149567
    18  H    3.851825   3.552222   2.954657   3.883908   4.898307
    19  H    3.585576   2.780488   3.953127   3.302403   4.552189
    20  H    4.666979   4.136804   4.526183   4.286235   5.736109
                    6          7          8          9         10
     6  C    0.000000
     7  C    2.671511   0.000000
     8  H    2.192966   4.189188   0.000000
     9  H    2.270861   4.323090   1.765281   0.000000
    10  H    2.171930   2.108287   2.743012   3.702631   0.000000
    11  C    3.709111   1.327817   5.053984   4.916521   3.203382
    12  C    1.496907   3.029239   3.468573   2.808579   3.435201
    13  H    3.057614   1.088427   4.787431   5.047011   2.494501
    14  H    1.093906   3.277075   2.426488   2.968168   2.367383
    15  C    2.535893   4.074474   3.993312   2.756423   4.563093
    16  H    4.615897   2.104952   6.102865   5.934958   4.093022
    17  H    3.970654   2.112388   4.958865   4.662039   3.552014
    18  H    2.183626   2.924032   4.341402   3.877907   3.705086
    19  H    2.838752   4.634095   3.671594   2.121633   4.835944
    20  H    3.507294   4.689425   5.073827   3.793812   5.471389
                   11         12         13         14         15
    11  C    0.000000
    12  C    3.817466   0.000000
    13  H    2.079504   3.287742   0.000000
    14  H    4.483625   2.111414   3.356246   0.000000
    15  C    4.578427   1.327657   4.465056   3.199533   0.000000
    16  H    1.082553   4.536353   2.409652   5.312339   5.270556
    17  H    1.083286   4.132911   3.062178   4.887492   4.667774
    18  H    3.736846   1.087484   2.845620   2.508355   2.073423
    19  H    5.074081   2.117784   5.188061   3.555139   1.082759
    20  H    5.055072   2.100982   4.965411   4.085318   1.082593
                   16         17         18         19         20
    16  H    0.000000
    17  H    1.842930   0.000000
    18  H    4.238964   4.298220   0.000000
    19  H    5.875847   4.954477   3.060814   0.000000
    20  H    5.575032   5.194938   2.394881   1.840338   0.000000
 Symmetry turned off by external request.
 Stoichiometry    C8H12
 Framework group  C1[X(C8H12)]
 Deg. of freedom    54
 Full point group                 C1      NOp   1
 Rotational constants (GHZ):           2.7935544           1.6963920           1.3157301
 Standard basis: def2TZVP (5D, 7F)
   320 basis functions,   504 primitive gaussians,   360 cartesian basis functions
    30 alpha electrons       30 beta electrons
       nuclear repulsion energy       360.3732441524 Hartrees.
 NAtoms=   20 NActive=   20 NUniq=   20 SFac= 1.00D+00 NAtFMM=   60 NAOKFM=F Big=F
 Integral buffers will be    131072 words long.
 Raffenetti 2 integral format.
 Two-electron integral symmetry is turned off.
 One-electron integrals computed using PRISM.
   1 Symmetry operations used in ECPInt.
 ECPInt:  NShTT=    9316 NPrTT=   27240 LenC2=    9174 LenP2D=   21654.
 LDataN:  DoStor=T MaxTD1= 6 Len=  172
 NBasis=   320 RedAO= T EigKep=  3.42D-05  NBF=   320
 NBsUse=   320 1.00D-06 EigRej= -1.00D+00 NBFU=   320
 ExpMin= 9.52D-02 ExpMax= 1.36D+04 ExpMxC= 4.63D+02 IAcc=3 IRadAn=         5 AccDes= 0.00D+00
 Harris functional with IExCor=  402 and IRadAn=       5 diagonalized for initial guess.
 HarFok:  IExCor=  402 AccDes= 0.00D+00 IRadAn=         5 IDoV= 1 UseB2=F ITyADJ=14
 ICtDFT=  3500011 ScaDFX=  1.000000  1.000000  1.000000  1.000000
 FoFCou: FMM=F IPFlag=           0 FMFlag=      100000 FMFlg1=           0
         NFxFlg=           0 DoJE=T BraDBF=F KetDBF=T FulRan=T
         wScrn=  0.000000 ICntrl=       500 IOpCl=  0 I1Cent=   200000004 NGrid=           0
         NMat0=    1 NMatS0=      1 NMatT0=    0 NMatD0=    1 NMtDS0=    0 NMtDT0=    0
 Symmetry not used in FoFCou.
 Requested convergence on RMS density matrix=1.00D-08 within 128 cycles.
 Requested convergence on MAX density matrix=1.00D-06.
 Requested convergence on             energy=1.00D-06.
 No special actions if energy rises.
 Integral accuracy reduced to 1.0D-05 until final iterations.
 Initial convergence to 1.0D-05 achieved.  Increase integral accuracy.
 SCF Done:  E(RB3LYP) =  -312.116804126     A.U. after   13 cycles
            NFock= 13  Conv=0.97D-08     -V/T= 2.0056

 **********************************************************************

            Population analysis using the SCF density.

 **********************************************************************

 Alpha  occ. eigenvalues --  -10.18245 -10.18171 -10.17374 -10.17350 -10.16886
 Alpha  occ. eigenvalues --  -10.16703 -10.16162 -10.16074  -0.86027  -0.77607
 Alpha  occ. eigenvalues --   -0.75962  -0.67169  -0.66042  -0.59491  -0.55949
 Alpha  occ. eigenvalues --   -0.51312  -0.49607  -0.48263  -0.45706  -0.44642
 Alpha  occ. eigenvalues --   -0.40960  -0.39706  -0.36995  -0.36555  -0.34887
 Alpha  occ. eigenvalues --   -0.32688  -0.32523  -0.30629  -0.26335  -0.25433
 Alpha virt. eigenvalues --   -0.00015   0.00790   0.03671   0.04979   0.06218
 Alpha virt. eigenvalues --    0.06789   0.08623   0.09388   0.09762   0.11098
 Alpha virt. eigenvalues --    0.12636   0.13060   0.13914   0.14354   0.14583
 Alpha virt. eigenvalues --    0.16202   0.17986   0.18839   0.19494   0.20554
 Alpha virt. eigenvalues --    0.20834   0.22089   0.22915   0.24286   0.25362
 Alpha virt. eigenvalues --    0.26895   0.28168   0.29777   0.30816   0.31202
 Alpha virt. eigenvalues --    0.33108   0.33202   0.34796   0.35142   0.36382
 Alpha virt. eigenvalues --    0.37641   0.37985   0.38474   0.40141   0.40683
 Alpha virt. eigenvalues --    0.41170   0.41663   0.43329   0.44026   0.44326
 Alpha virt. eigenvalues --    0.44690   0.45724   0.46102   0.46795   0.47549
 Alpha virt. eigenvalues --    0.49014   0.49862   0.50099   0.50628   0.53304
 Alpha virt. eigenvalues --    0.54584   0.56177   0.58120   0.58455   0.59739
 Alpha virt. eigenvalues --    0.61247   0.64013   0.64819   0.67103   0.69057
 Alpha virt. eigenvalues --    0.71542   0.73080   0.74467   0.77185   0.77843
 Alpha virt. eigenvalues --    0.83717   0.87062   0.88652   0.89961   0.91429
 Alpha virt. eigenvalues --    0.93898   0.94171   0.95508   0.96008   0.97431
 Alpha virt. eigenvalues --    0.98737   1.00381   1.01560   1.02181   1.04297
 Alpha virt. eigenvalues --    1.07838   1.08318   1.09214   1.11690   1.14523
 Alpha virt. eigenvalues --    1.15800   1.17531   1.17618   1.19125   1.20035
 Alpha virt. eigenvalues --    1.21975   1.23433   1.24714   1.25821   1.28993
 Alpha virt. eigenvalues --    1.29573   1.31991   1.34180   1.38295   1.42263
 Alpha virt. eigenvalues --    1.45710   1.46538   1.48788   1.50531   1.51326
 Alpha virt. eigenvalues --    1.54238   1.55590   1.56205   1.57949   1.60102
 Alpha virt. eigenvalues --    1.60722   1.61796   1.63118   1.66082   1.66429
 Alpha virt. eigenvalues --    1.68587   1.70263   1.72785   1.75388   1.75964
 Alpha virt. eigenvalues --    1.77407   1.78114   1.78893   1.79948   1.83117
 Alpha virt. eigenvalues --    1.83914   1.84569   1.85503   1.87962   1.91349
 Alpha virt. eigenvalues --    1.92316   1.96096   1.97357   1.99585   2.00112
 Alpha virt. eigenvalues --    2.01958   2.06807   2.10127   2.13650   2.15430
 Alpha virt. eigenvalues --    2.20130   2.23104   2.25506   2.26467   2.27916
 Alpha virt. eigenvalues --    2.28929   2.31748   2.33683   2.35125   2.38404
 Alpha virt. eigenvalues --    2.39891   2.41877   2.42882   2.44699   2.45656
 Alpha virt. eigenvalues --    2.46365   2.49808   2.51315   2.53295   2.53322
 Alpha virt. eigenvalues --    2.55429   2.57407   2.58896   2.59988   2.61619
 Alpha virt. eigenvalues --    2.63266   2.64096   2.64941   2.65754   2.68168
 Alpha virt. eigenvalues --    2.69939   2.70675   2.71552   2.73975   2.74917
 Alpha virt. eigenvalues --    2.78283   2.82374   2.86319   2.87858   2.88277
 Alpha virt. eigenvalues --    2.88721   2.90933   2.91295   2.93420   2.96261
 Alpha virt. eigenvalues --    2.97016   2.98269   2.99987   3.01275   3.02490
 Alpha virt. eigenvalues --    3.04700   3.05617   3.06670   3.07039   3.09251
 Alpha virt. eigenvalues --    3.10359   3.11179   3.13461   3.14942   3.16978
 Alpha virt. eigenvalues --    3.18942   3.20249   3.21743   3.22766   3.23794
 Alpha virt. eigenvalues --    3.25282   3.26056   3.27557   3.29025   3.31234
 Alpha virt. eigenvalues --    3.33962   3.34983   3.36547   3.38150   3.40207
 Alpha virt. eigenvalues --    3.41874   3.42733   3.42964   3.44997   3.47272
 Alpha virt. eigenvalues --    3.49694   3.51312   3.52434   3.55625   3.60964
 Alpha virt. eigenvalues --    3.61371   3.63655   3.65146   3.66599   3.69516
 Alpha virt. eigenvalues --    3.70182   3.72565   3.77632   3.79021   3.81864
 Alpha virt. eigenvalues --    3.84033   3.85422   3.87859   3.91973   3.94699
 Alpha virt. eigenvalues --    3.98191   4.01089   4.03162   4.04920   4.06509
 Alpha virt. eigenvalues --    4.10136   4.10812   4.13831   4.14583   4.17652
 Alpha virt. eigenvalues --    4.20810   4.25688   4.28268   4.32417   4.33425
 Alpha virt. eigenvalues --    4.40034   4.43008   4.45546   4.49033   4.51103
 Alpha virt. eigenvalues --    4.56799   4.57818   4.60678   4.62731   4.68939
 Alpha virt. eigenvalues --    4.69720   4.73073   4.78320   4.83799   4.90388
 Alpha virt. eigenvalues --    4.91071   4.97461   5.04094   5.07983   5.13573
 Alpha virt. eigenvalues --    5.16998   5.22769  22.11209  22.22151  22.39169
 Alpha virt. eigenvalues --   22.49923  22.64654  22.71770  22.74018  22.75155
          Condensed to atoms (all electrons):
               1          2          3          4          5          6
     1  C    4.958174   0.309072   0.335651   0.384289   0.412913  -0.106810
     2  C    0.309072   4.990138  -0.117547  -0.015489  -0.036287   0.289142
     3  C    0.335651  -0.117547   4.963011  -0.018518  -0.039831   0.291833
     4  H    0.384289  -0.015489  -0.018518   0.598112  -0.031953  -0.006269
     5  H    0.412913  -0.036287  -0.039831  -0.031953   0.600302   0.018820
     6  C   -0.106810   0.289142   0.291833  -0.006269   0.018820   4.953048
     7  C   -0.025805   0.006928   0.301271  -0.008815   0.004170  -0.015912
     8  H   -0.024202   0.386674  -0.002760   0.005072  -0.009376  -0.015301
     9  H   -0.033353   0.404053   0.014741  -0.009966   0.002687  -0.030158
    10  H   -0.044105   0.011548   0.418059   0.008225  -0.011075  -0.056748
    11  C   -0.002383   0.000891  -0.045841   0.002478  -0.000078  -0.005437
    12  C    0.001760  -0.009126  -0.023857   0.002008  -0.000528   0.337784
    13  H    0.006552  -0.001243  -0.050314   0.000016  -0.000321  -0.001113
    14  H    0.015364  -0.041988  -0.053493  -0.000464  -0.001014   0.415102
    15  C   -0.004713   0.000143   0.001213   0.001831  -0.000156  -0.050003
    16  H    0.000003   0.000038   0.009141  -0.000153   0.000007  -0.000389
    17  H    0.000907   0.000055  -0.008660   0.002513  -0.000524  -0.000424
    18  H   -0.003249   0.009974  -0.004165   0.000359   0.000029  -0.056678
    19  H   -0.003269   0.005772   0.000301   0.000140   0.000036  -0.010498
    20  H    0.000311  -0.000312  -0.000447  -0.000052   0.000002   0.008706
               7          8          9         10         11         12
     1  C   -0.025805  -0.024202  -0.033353  -0.044105  -0.002383   0.001760
     2  C    0.006928   0.386674   0.404053   0.011548   0.000891  -0.009126
     3  C    0.301271  -0.002760   0.014741   0.418059  -0.045841  -0.023857
     4  H   -0.008815   0.005072  -0.009966   0.008225   0.002478   0.002008
     5  H    0.004170  -0.009376   0.002687  -0.011075  -0.000078  -0.000528
     6  C   -0.015912  -0.015301  -0.030158  -0.056748  -0.005437   0.337784
     7  C    5.025788   0.000140  -0.000414  -0.051645   0.617352  -0.017261
     8  H    0.000140   0.602811  -0.026121   0.002737   0.000013   0.003448
     9  H   -0.000414  -0.026121   0.596215  -0.001177  -0.000047  -0.011089
    10  H   -0.051645   0.002737  -0.001177   0.660032   0.000586   0.008236
    11  C    0.617352   0.000013  -0.000047   0.000586   4.879972  -0.000738
    12  C   -0.017261   0.003448  -0.011089   0.008236  -0.000738   4.996200
    13  H    0.400386   0.000019   0.000069  -0.002960  -0.030764  -0.000885
    14  H    0.002656  -0.008795   0.003086  -0.010486  -0.000065  -0.051714
    15  C    0.004546   0.000090  -0.001361  -0.000156   0.002452   0.600943
    16  H   -0.041644  -0.000000  -0.000004  -0.000460   0.413808   0.000075
    17  H   -0.044576   0.000011   0.000040   0.000391   0.413203  -0.000396
    18  H    0.007108  -0.000358  -0.000036   0.000362   0.002040   0.400033
    19  H    0.000009  -0.000316   0.004465  -0.000057  -0.000013  -0.048220
    20  H   -0.000076   0.000000  -0.000080   0.000021   0.000058  -0.039340
              13         14         15         16         17         18
     1  C    0.006552   0.015364  -0.004713   0.000003   0.000907  -0.003249
     2  C   -0.001243  -0.041988   0.000143   0.000038   0.000055   0.009974
     3  C   -0.050314  -0.053493   0.001213   0.009141  -0.008660  -0.004165
     4  H    0.000016  -0.000464   0.001831  -0.000153   0.002513   0.000359
     5  H   -0.000321  -0.001014  -0.000156   0.000007  -0.000524   0.000029
     6  C   -0.001113   0.415102  -0.050003  -0.000389  -0.000424  -0.056678
     7  C    0.400386   0.002656   0.004546  -0.041644  -0.044576   0.007108
     8  H    0.000019  -0.008795   0.000090  -0.000000   0.000011  -0.000358
     9  H    0.000069   0.003086  -0.001361  -0.000004   0.000040  -0.000036
    10  H   -0.002960  -0.010486  -0.000156  -0.000460   0.000391   0.000362
    11  C   -0.030764  -0.000065   0.002452   0.413808   0.413203   0.002040
    12  C   -0.000885  -0.051714   0.600943   0.000075  -0.000396   0.400033
    13  H    0.583203   0.000743   0.000209  -0.010545   0.007360  -0.000191
    14  H    0.000743   0.650757   0.000880   0.000022  -0.000050  -0.001564
    15  C    0.000209   0.000880   4.909283   0.000003  -0.000098  -0.032329
    16  H   -0.010545   0.000022   0.000003   0.555965  -0.035033   0.000071
    17  H    0.007360  -0.000050  -0.000098  -0.035033   0.560692   0.000002
    18  H   -0.000191  -0.001564  -0.032329   0.000071   0.000002   0.590874
    19  H    0.000003   0.000490   0.413331   0.000002  -0.000011   0.007594
    20  H    0.000000  -0.000521   0.412518  -0.000003   0.000006  -0.010935
              19         20
     1  C   -0.003269   0.000311
     2  C    0.005772  -0.000312
     3  C    0.000301  -0.000447
     4  H    0.000140  -0.000052
     5  H    0.000036   0.000002
     6  C   -0.010498   0.008706
     7  C    0.000009  -0.000076
     8  H   -0.000316   0.000000
     9  H    0.004465  -0.000080
    10  H   -0.000057   0.000021
    11  C   -0.000013   0.000058
    12  C   -0.048220  -0.039340
    13  H    0.000003   0.000000
    14  H    0.000490  -0.000521
    15  C    0.413331   0.412518
    16  H    0.000002  -0.000003
    17  H   -0.000011   0.000006
    18  H    0.007594  -0.010935
    19  H    0.567065  -0.035556
    20  H   -0.035556   0.556462
 Mulliken charges:
               1
     1  C   -0.177108
     2  C   -0.192438
     3  C    0.030212
     4  H    0.086637
     5  H    0.092173
     6  C    0.041305
     7  C   -0.164207
     8  H    0.086215
     9  H    0.088447
    10  H    0.068671
    11  C   -0.247488
    12  C   -0.147333
    13  H    0.099775
    14  H    0.081053
    15  C   -0.258626
    16  H    0.109095
    17  H    0.104591
    18  H    0.091057
    19  H    0.098731
    20  H    0.109239
 Sum of Mulliken charges =  -0.00000
 Mulliken charges with hydrogens summed into heavy atoms:
               1
     1  C    0.001701
     2  C   -0.017776
     3  C    0.098883
     6  C    0.122358
     7  C   -0.064432
    11  C   -0.033802
    12  C   -0.056276
    15  C   -0.050656
 Electronic spatial extent (au):  <R**2>=           1585.7486
 Charge=             -0.0000 electrons
 Dipole moment (field-independent basis, Debye):
    X=              0.1031    Y=             -0.5134    Z=              0.1544  Tot=              0.5459
 Quadrupole moment (field-independent basis, Debye-Ang):
   XX=            -48.6353   YY=            -51.2426   ZZ=            -53.2447
   XY=             -0.5382   XZ=              0.1813   YZ=             -1.4032
 Traceless Quadrupole moment (field-independent basis, Debye-Ang):
   XX=              2.4056   YY=             -0.2017   ZZ=             -2.2039
   XY=             -0.5382   XZ=              0.1813   YZ=             -1.4032
 Octapole moment (field-independent basis, Debye-Ang**2):
  XXX=           -171.3655  YYY=           -144.9903  ZZZ=            -85.0313  XYY=            -61.2172
  XXY=            -44.8160  XXZ=            -24.0151  XZZ=            -66.5466  YZZ=            -48.7599
  YYZ=            -23.6684  XYZ=             -4.4764
 Hexadecapole moment (field-independent basis, Debye-Ang**3):
 XXXX=           -722.1817 YYYY=           -682.0593 ZZZZ=           -843.2238 XXXY=           -193.8653
 XXXZ=             -9.9282 YYYX=           -206.0702 YYYZ=           -110.5776 ZZZX=            -28.1678
 ZZZY=           -162.9525 XXYY=           -237.9240 XXZZ=           -264.3555 YYZZ=           -245.4148
 XXYZ=            -50.3364 YYXZ=             -5.9709 ZZXY=            -73.2958
 N-N= 3.603732441524D+02 E-N=-1.443432795707D+03  KE= 3.103866683366D+02
 1\1\GINC-BHC0026\SP\RB3LYP\def2TZVP\C8H12\DHANAWAY\10-Jun-2022\0\\# sp
  B3LYP/Def2TZVP NoSymm\\int_initalOpt_zmat_AlignedSp\\0,1\C\C,1,1.5470
 0262\C,1,1.54464024,2,88.90092467\H,1,1.09012245,2,111.25178134,3,-112
 .93112182,0\H,1,1.08992272,2,117.84480102,3,120.45747227,0\C,2,1.55023
 924,1,89.56143465,3,18.58715018,0\C,3,1.49095851,1,121.87744391,2,-143
 .54254067,0\H,2,1.09046513,1,112.00736931,6,-112.64881761,0\H,2,1.0884
 199,1,117.33076627,6,121.29155432,0\H,3,1.09521905,1,109.26839636,7,-1
 27.44076128,0\C,7,1.32781743,3,126.32444963,1,-6.20754116,0\C,6,1.4969
 0732,2,117.64031767,1,98.71464309,0\H,7,1.0884266,3,115.22677409,11,-1
 78.92400456,0\H,6,1.09390611,2,114.97586558,12,129.20117985,0\C,12,1.3
 2765682,6,127.63946387,2,14.0315543,0\H,11,1.08255297,7,121.3526288,3,
 -178.97780132,0\H,11,1.08328633,7,122.02579251,16,179.73644528,0\H,12,
 1.08748446,6,114.39828311,15,179.23740597,0\H,15,1.08275886,12,122.622
 97133,6,-0.66025805,0\H,15,1.08259339,12,120.97448141,19,179.75198402,
 0\\Version=ES64L-G16RevA.03\HF=-312.1168041\RMSD=9.740e-09\Dipole=0.04
 05654,-0.201979,0.0607294\Quadrupole=1.7885044,-0.1499809,-1.6385234,-
 0.4001219,0.1347723,-1.0432149\PG=C01 [X(C8H12)]\\@


 IT IS BY EATING THE LIGHT OF A STAR THAT WE EXIST, 
 IN THE FINAL ANALYSIS, 
 JUST AS IT IS BY PERCEIVING THE LIGHT OF STARS
 THAT WE DEFINE THE WORLD AROUND US.

                                    -- GILBERT GROSVENOR
 Job cpu time:       0 days  0 hours 12 minutes 13.3 seconds.
 Elapsed time:       0 days  0 hours  1 minutes  1.3 seconds.
 File lengths (MBytes):  RWF=     60 Int=      0 D2E=      0 Chk=     32 Scr=      1
 Normal termination of Gaussian 16 at Fri Jun 10 02:33:25 2022.
