 Entering Gaussian System, Link 0=g16
 Input=ts_zmat_field_N50.gjf
 Output=ts_zmat_field_N50.out
 Initial command:
 /software/gaussian/g16-a03/l1.exe "/local_scratch/11171324/Gau-1860.inp" -scrdir="/local_scratch/11171324/"
 Entering Link 1 = /software/gaussian/g16-a03/l1.exe PID=      1861.
  
 Copyright (c) 1988,1990,1992,1993,1995,1998,2003,2009,2016,
            Gaussian, Inc.  All Rights Reserved.
  
 This is part of the Gaussian(R) 16 program.  It is based on
 the Gaussian(R) 09 system (copyright 2009, Gaussian, Inc.),
 the Gaussian(R) 03 system (copyright 2003, Gaussian, Inc.),
 the Gaussian(R) 98 system (copyright 1998, Gaussian, Inc.),
 the Gaussian(R) 94 system (copyright 1995, Gaussian, Inc.),
 the Gaussian 92(TM) system (copyright 1992, Gaussian, Inc.),
 the Gaussian 90(TM) system (copyright 1990, Gaussian, Inc.),
 the Gaussian 88(TM) system (copyright 1988, Gaussian, Inc.),
 the Gaussian 86(TM) system (copyright 1986, Carnegie Mellon
 University), and the Gaussian 82(TM) system (copyright 1983,
 Carnegie Mellon University). Gaussian is a federally registered
 trademark of Gaussian, Inc.
  
 This software contains proprietary and confidential information,
 including trade secrets, belonging to Gaussian, Inc.
  
 This software is provided under written license and may be
 used, copied, transmitted, or stored only in accord with that
 written license.
  
 The following legend is applicable only to US Government
 contracts under FAR:
  
                    RESTRICTED RIGHTS LEGEND
  
 Use, reproduction and disclosure by the US Government is
 subject to restrictions as set forth in subparagraphs (a)
 and (c) of the Commercial Computer Software - Restricted
 Rights clause in FAR 52.227-19.
  
 Gaussian, Inc.
 340 Quinnipiac St., Bldg. 40, Wallingford CT 06492
  
  
 ---------------------------------------------------------------
 Warning -- This program may not be used in any manner that
 competes with the business of Gaussian, Inc. or will provide
 assistance to any competitor of Gaussian, Inc.  The licensee
 of this program is prohibited from giving any competitor of
 Gaussian, Inc. access to this program.  By using this program,
 the user acknowledges that Gaussian, Inc. is engaged in the
 business of creating and licensing software in the field of
 computational chemistry and represents and warrants to the
 licensee that it is not a competitor of Gaussian, Inc. and that
 it will not use this program in any manner prohibited above.
 ---------------------------------------------------------------
  

 Cite this work as:
 Gaussian 16, Revision A.03,
 M. J. Frisch, G. W. Trucks, H. B. Schlegel, G. E. Scuseria, 
 M. A. Robb, J. R. Cheeseman, G. Scalmani, V. Barone, 
 G. A. Petersson, H. Nakatsuji, X. Li, M. Caricato, A. V. Marenich, 
 J. Bloino, B. G. Janesko, R. Gomperts, B. Mennucci, H. P. Hratchian, 
 J. V. Ortiz, A. F. Izmaylov, J. L. Sonnenberg, D. Williams-Young, 
 F. Ding, F. Lipparini, F. Egidi, J. Goings, B. Peng, A. Petrone, 
 T. Henderson, D. Ranasinghe, V. G. Zakrzewski, J. Gao, N. Rega, 
 G. Zheng, W. Liang, M. Hada, M. Ehara, K. Toyota, R. Fukuda, 
 J. Hasegawa, M. Ishida, T. Nakajima, Y. Honda, O. Kitao, H. Nakai, 
 T. Vreven, K. Throssell, J. A. Montgomery, Jr., J. E. Peralta, 
 F. Ogliaro, M. J. Bearpark, J. J. Heyd, E. N. Brothers, K. N. Kudin, 
 V. N. Staroverov, T. A. Keith, R. Kobayashi, J. Normand, 
 K. Raghavachari, A. P. Rendell, J. C. Burant, S. S. Iyengar, 
 J. Tomasi, M. Cossi, J. M. Millam, M. Klene, C. Adamo, R. Cammi, 
 J. W. Ochterski, R. L. Martin, K. Morokuma, O. Farkas, 
 J. B. Foresman, and D. J. Fox, Gaussian, Inc., Wallingford CT, 2016.
 
 ******************************************
 Gaussian 16:  ES64L-G16RevA.03 25-Dec-2016
                10-Jun-2022 
 ******************************************
 %nprocshared=12
 Will use up to   12 processors via shared memory.
 %chk=checkpoint.chk
 %mem=12GB
 ----------------------------------------------------------------------
 # Opt=(TS, CalcFC, noeigentest, Z-matrix, MaxStep=10) geom=allcheckpoi
 nt guess=read Field=read NoSymm B3LYP/Def2TZVP freq=noraman pop=none
 ----------------------------------------------------------------------
 1/5=1,8=10,10=4,11=1,18=40,26=3,29=7,38=1/1,3;
 2/12=2,15=1,29=3,40=1/2;
 3/5=44,7=101,11=2,14=-6,25=1,30=1,71=2,74=-5,116=-2,140=1/1,2,3;
 4/5=1/1;
 5/5=2,38=6/2;
 8/6=4,10=90,11=11/1;
 11/6=1,8=1,9=11,15=111,16=1,31=1/1,2,10;
 10/6=1,13=1,31=1/2;
 7/10=1,18=20,25=1,30=1/1,2,3,16;
 1/5=1,8=10,10=4,11=1,18=40,26=3/3(2);
 2/15=1,29=3/2;
 99//99;
 2/15=1,29=3/2;
 3/5=44,7=101,11=2,14=-2,25=1,30=1,71=1,74=-5/1,2,3;
 4/5=5,16=3,69=1/1;
 5/5=2,38=5/2;
 7/30=1/1,2,3,16;
 1/5=1,8=10,11=1,18=40,26=3/3(-5);
 2/15=1,29=3/2;
 99/9=1/99;
 Structure from the checkpoint file:  "checkpoint.chk"
 -----------------
 ts_zmat_initalOpt
 -----------------
 Charge =  0 Multiplicity = 1
 Z-Matrix found in chk file.
 C
 C,1,R2
 C,1,R3,2,A3
 H,1,R4,2,A4,3,D4,0
 H,1,R5,2,A5,3,D5,0
 C,2,R6,1,A6,3,D6,0
 C,3,R7,1,A7,2,D7,0
 H,2,R8,1,A8,6,D8,0
 H,2,R9,1,A9,6,D9,0
 H,3,R10,1,A10,7,D10,0
 C,7,R11,3,A11,1,D11,0
 C,6,R12,2,A12,1,D12,0
 H,6,R13,2,A13,12,D13,0
 H,7,R14,3,A14,11,D14,0
 C,12,R15,6,A15,2,D15,0
 H,12,R16,6,A16,15,D16,0
 H,11,R17,7,A17,3,D17,0
 H,11,R18,7,A18,17,D18,0
 H,15,R19,12,A19,6,D19,0
 H,15,R20,12,A20,19,D20,0
      Variables:
 R2=1.53920988
 R3=1.52394625
 R4=1.09172605
 R5=1.09175103
 R6=1.52366092
 R7=1.39165043
 R8=1.09100244
 R9=1.09126136
 R10=1.08392435
 R11=1.37760781
 R12=1.39128203
 R13=1.08369128
 R14=1.08693586
 R15=1.37626788
 R16=1.08630949
 R17=1.07991105
 R18=1.0818194
 R19=1.07999495
 R20=1.08159501
 A3=102.3428568
 A4=112.58318877
 A5=112.73617032
 A6=102.23068379
 A7=123.90293811
 A8=112.62218837
 A9=112.90574066
 A10=116.46025338
 A11=124.82194485
 A12=124.0211521
 A13=116.41837074
 A14=116.24767102
 A15=124.71010749
 A16=116.41849666
 A17=121.31750648
 A18=120.14660135
 A19=121.22817562
 A20=120.12332464
 D4=119.03846948
 D5=-120.08059037
 D6=0.5470853
 D7=-100.47914207
 D8=-118.77827381
 D9=120.24035145
 D10=-161.49681477
 D11=18.93757007
 D12=99.5490037
 D13=161.26979829
 D14=164.54984032
 D15=-18.63578137
 D16=-165.71054257
 D17=-25.94556537
 D18=-159.68545864
 D19=25.39210037
 D20=159.24308036
 Recover connectivity data from disk.

 GradGradGradGradGradGradGradGradGradGradGradGradGradGradGradGradGradGrad
 Berny optimization.
 Initialization pass.
                       ----------------------------
                       !    Initial Parameters    !
                       ! (Angstroms and Degrees)  !
 ----------------------                            ----------------------
 !      Name          Value   Derivative information (Atomic Units)     !
 ------------------------------------------------------------------------
 !       R2          1.5392   calculate D2E/DX2 analytically            !
 !       R3          1.5239   calculate D2E/DX2 analytically            !
 !       R4          1.0917   calculate D2E/DX2 analytically            !
 !       R5          1.0918   calculate D2E/DX2 analytically            !
 !       R6          1.5237   calculate D2E/DX2 analytically            !
 !       R7          1.3917   calculate D2E/DX2 analytically            !
 !       R8          1.091    calculate D2E/DX2 analytically            !
 !       R9          1.0913   calculate D2E/DX2 analytically            !
 !       R10         1.0839   calculate D2E/DX2 analytically            !
 !       R11         1.3776   calculate D2E/DX2 analytically            !
 !       R12         1.3913   calculate D2E/DX2 analytically            !
 !       R13         1.0837   calculate D2E/DX2 analytically            !
 !       R14         1.0869   calculate D2E/DX2 analytically            !
 !       R15         1.3763   calculate D2E/DX2 analytically            !
 !       R16         1.0863   calculate D2E/DX2 analytically            !
 !       R17         1.0799   calculate D2E/DX2 analytically            !
 !       R18         1.0818   calculate D2E/DX2 analytically            !
 !       R19         1.08     calculate D2E/DX2 analytically            !
 !       R20         1.0816   calculate D2E/DX2 analytically            !
 !       A3        102.3429   calculate D2E/DX2 analytically            !
 !       A4        112.5832   calculate D2E/DX2 analytically            !
 !       A5        112.7362   calculate D2E/DX2 analytically            !
 !       A6        102.2307   calculate D2E/DX2 analytically            !
 !       A7        123.9029   calculate D2E/DX2 analytically            !
 !       A8        112.6222   calculate D2E/DX2 analytically            !
 !       A9        112.9057   calculate D2E/DX2 analytically            !
 !       A10       116.4603   calculate D2E/DX2 analytically            !
 !       A11       124.8219   calculate D2E/DX2 analytically            !
 !       A12       124.0212   calculate D2E/DX2 analytically            !
 !       A13       116.4184   calculate D2E/DX2 analytically            !
 !       A14       116.2477   calculate D2E/DX2 analytically            !
 !       A15       124.7101   calculate D2E/DX2 analytically            !
 !       A16       116.4185   calculate D2E/DX2 analytically            !
 !       A17       121.3175   calculate D2E/DX2 analytically            !
 !       A18       120.1466   calculate D2E/DX2 analytically            !
 !       A19       121.2282   calculate D2E/DX2 analytically            !
 !       A20       120.1233   calculate D2E/DX2 analytically            !
 !       D4        119.0385   calculate D2E/DX2 analytically            !
 !       D5       -120.0806   calculate D2E/DX2 analytically            !
 !       D6          0.5471   calculate D2E/DX2 analytically            !
 !       D7       -100.4791   calculate D2E/DX2 analytically            !
 !       D8       -118.7783   calculate D2E/DX2 analytically            !
 !       D9        120.2404   calculate D2E/DX2 analytically            !
 !       D10      -161.4968   calculate D2E/DX2 analytically            !
 !       D11        18.9376   calculate D2E/DX2 analytically            !
 !       D12        99.549    calculate D2E/DX2 analytically            !
 !       D13       161.2698   calculate D2E/DX2 analytically            !
 !       D14       164.5498   calculate D2E/DX2 analytically            !
 !       D15       -18.6358   calculate D2E/DX2 analytically            !
 !       D16      -165.7105   calculate D2E/DX2 analytically            !
 !       D17       -25.9456   calculate D2E/DX2 analytically            !
 !       D18      -159.6855   calculate D2E/DX2 analytically            !
 !       D19        25.3921   calculate D2E/DX2 analytically            !
 !       D20       159.2431   calculate D2E/DX2 analytically            !
 ------------------------------------------------------------------------
 Trust Radius=1.00D-01 FncErr=1.00D-07 GrdErr=1.00D-06 EigMax=2.50D+02 EigMin=1.00D-04
 Number of steps in this run=     64 maximum allowed number of steps=    108.
 Search for a saddle point of order  1.
 GradGradGradGradGradGradGradGradGradGradGradGradGradGradGradGradGradGrad

 ---------------------------------------------------------------------------------------------------
                            Z-MATRIX (ANGSTROMS AND DEGREES)
   CD    Cent   Atom    N1       Length/X        N2       Alpha/Y        N3        Beta/Z          J
 ---------------------------------------------------------------------------------------------------
      1      1  C 
      2      2  C        1   1.539210(     1)
      3      3  C        1   1.523946(     2)      2  102.343(    20)
      4      4  H        1   1.091726(     3)      2  112.583(    21)      3  119.038(    38)      0
      5      5  H        1   1.091751(     4)      2  112.736(    22)      3 -120.081(    39)      0
      6      6  C        2   1.523661(     5)      1  102.231(    23)      3    0.547(    40)      0
      7      7  C        3   1.391650(     6)      1  123.903(    24)      2 -100.479(    41)      0
      8      8  H        2   1.091002(     7)      1  112.622(    25)      6 -118.778(    42)      0
      9      9  H        2   1.091261(     8)      1  112.906(    26)      6  120.240(    43)      0
     10     10  H        3   1.083924(     9)      1  116.460(    27)      7 -161.497(    44)      0
     11     11  C        7   1.377608(    10)      3  124.822(    28)      1   18.938(    45)      0
     12     12  C        6   1.391282(    11)      2  124.021(    29)      1   99.549(    46)      0
     13     13  H        6   1.083691(    12)      2  116.418(    30)     12  161.270(    47)      0
     14     14  H        7   1.086936(    13)      3  116.248(    31)     11  164.550(    48)      0
     15     15  C       12   1.376268(    14)      6  124.710(    32)      2  -18.636(    49)      0
     16     16  H       12   1.086309(    15)      6  116.418(    33)     15 -165.711(    50)      0
     17     17  H       11   1.079911(    16)      7  121.318(    34)      3  -25.946(    51)      0
     18     18  H       11   1.081819(    17)      7  120.147(    35)     17 -159.685(    52)      0
     19     19  H       15   1.079995(    18)     12  121.228(    36)      6   25.392(    53)      0
     20     20  H       15   1.081595(    19)     12  120.123(    37)     19  159.243(    54)      0
 ---------------------------------------------------------------------------------------------------
                         Z-Matrix orientation:                         
 ---------------------------------------------------------------------
 Center     Atomic      Atomic             Coordinates (Angstroms)
 Number     Number       Type             X           Y           Z
 ---------------------------------------------------------------------
      1          6           0        0.000000    0.000000    0.000000
      2          6           0        0.000000    0.000000    1.539210
      3          6           0        1.488722    0.000000   -0.325761
      4          1           0       -0.489288   -0.881302   -0.419249
      5          1           0       -0.504684    0.871306   -0.421949
      6          6           0        1.489010    0.014218    1.861995
      7          6           0        2.202119    1.135782   -0.696913
      8          1           0       -0.476371   -0.887268    1.958867
      9          1           0       -0.514522    0.863549    1.963947
     10          1           0        1.931575   -0.960876   -0.561324
     11          6           0        1.792010    2.431273   -0.470377
     12          6           0        2.198346    1.158203    2.213855
     13          1           0        1.936547   -0.939639    2.115478
     14          1           0        3.246129    0.983609   -0.958283
     15          6           0        1.777798    2.446250    1.972636
     16          1           0        3.239401    1.015720    2.489483
     17          1           0        0.745791    2.679447   -0.370160
     18          1           0        2.447449    3.258217   -0.708907
     19          1           0        0.729213    2.682457    1.867444
     20          1           0        2.422651    3.281349    2.210591
 ---------------------------------------------------------------------
                    Distance matrix (angstroms):
                    1          2          3          4          5
     1  C    0.000000
     2  C    1.539210   0.000000
     3  C    1.523946   2.386296   0.000000
     4  H    1.091726   2.202648   2.167476   0.000000
     5  H    1.091751   2.204546   2.177634   1.752677   0.000000
     6  C    2.384193   1.523661   2.187801   3.149554   3.150526
     7  C    2.573911   3.337600   1.391650   3.374818   2.733557
     8  H    2.202574   1.091002   3.141394   2.378159   2.960012
     9  H    2.206249   1.091261   3.162509   2.953771   2.385928
    10  H    2.229204   3.011064   1.083924   2.426333   3.051503
    11  C    3.056737   3.627785   2.454381   4.022448   2.776805
    12  C    3.327960   2.574744   2.880043   4.279743   3.786310
    13  H    3.018010   2.228278   2.653887   3.508977   3.959503
    14  H    3.524649   4.212162   2.110936   4.209726   3.790629
    15  C    3.610540   3.054924   3.369025   4.683310   3.663906
    16  H    4.209862   3.525398   3.467299   5.095345   4.745047
    17  H    2.805826   3.373623   2.780891   3.769186   2.199033
    18  H    4.136246   4.654032   3.417885   5.083694   3.807201
    19  H    3.348832   2.799119   3.547193   4.406142   3.169241
    20  H    4.639310   4.133672   4.251182   5.720412   4.616044
                    6          7          8          9         10
     6  C    0.000000
     7  C    2.883477   0.000000
     8  H    2.164436   4.280211   0.000000
     9  H    2.178508   3.812404   1.751240   0.000000
    10  H    2.649367   2.118385   3.486400   3.960923   0.000000
    11  C    3.372524   1.377608   4.696754   3.701862   3.396237
    12  C    1.391282   2.910857   3.376845   2.740243   3.501897
    13  H    1.083691   3.505345   2.418562   3.046669   2.676890
    14  H    3.461380   1.086936   5.085957   4.764067   2.380473
    15  C    2.451616   3.003975   4.024154   2.785632   4.248895
    16  H    2.112018   3.353132   4.208311   3.793585   3.863258
    17  H    3.555043   2.147221   4.431648   3.214643   3.833351
    18  H    4.248725   2.136600   5.731561   4.653155   4.253076
    19  H    2.774315   3.337301   3.768916   2.205587   4.540756
    20  H    3.415750   3.620175   5.083804   3.812292   5.091281
                   11         12         13         14         15
    11  C    0.000000
    12  C    2.998486   0.000000
    13  H    4.250951   2.116402   0.000000
    14  H    2.109087   3.345264   3.855113   0.000000
    15  C    2.443100   1.376268   3.392617   3.589652   0.000000
    16  H    3.586015   1.086309   2.379230   3.447922   2.109463
    17  H    1.079911   3.331851   4.549075   3.077897   2.570624
    18  H    1.081819   3.607582   5.085289   2.423617   2.880693
    19  H    2.580317   2.145158   3.826063   4.147974   1.079995
    20  H    2.882347   2.134964   4.249951   3.999936   1.081595
                   16         17         18         19         20
    16  H    0.000000
    17  H    4.142902   0.000000
    18  H    3.985684   1.829033   0.000000
    19  H    3.076685   2.237667   3.149828   0.000000
    20  H    2.424446   3.135987   2.919694   1.828703   0.000000
 Symmetry turned off by external request.
 Stoichiometry    C8H12
 Framework group  C1[X(C8H12)]
 Deg. of freedom    54
 Full point group                 C1      NOp   1
 Rotational constants (GHZ):           2.4908196           2.3098129           1.5826443
 Standard basis: def2TZVP (5D, 7F)
 The following finite field(s) will be applied:
 An electric field of              0.0013  0.0012 -0.0047
   320 basis functions,   504 primitive gaussians,   360 cartesian basis functions
    30 alpha electrons       30 beta electrons
       nuclear repulsion energy       368.1862818493 Hartrees.
 NAtoms=   20 NActive=   20 NUniq=   20 SFac= 1.00D+00 NAtFMM=   60 NAOKFM=F Big=F
 Integral buffers will be    131072 words long.
 Raffenetti 2 integral format.
 Two-electron integral symmetry is turned off.
 One-electron integrals computed using PRISM.
   1 Symmetry operations used in ECPInt.
 ECPInt:  NShTT=    9316 NPrTT=   27240 LenC2=    9239 LenP2D=   22129.
 LDataN:  DoStor=T MaxTD1= 6 Len=  172
 NBasis=   320 RedAO= T EigKep=  2.56D-05  NBF=   320
 NBsUse=   320 1.00D-06 EigRej= -1.00D+00 NBFU=   320
 The nuclear repulsion energy is now       368.1016466404 hartrees.
 Initial guess from the checkpoint file:  "checkpoint.chk"
 B after Tr=    -0.000000    0.000000   -0.000000
         Rot=    1.000000    0.000000    0.000000   -0.000000 Ang=   0.00 deg.
 Requested convergence on RMS density matrix=1.00D-08 within 128 cycles.
 Requested convergence on MAX density matrix=1.00D-06.
 Requested convergence on             energy=1.00D-06.
 No special actions if energy rises.
 SCF Done:  E(RB3LYP) =  -312.081506984     A.U. after   10 cycles
            NFock= 10  Conv=0.74D-08     -V/T= 2.0056
 DoSCS=F DFT=T ScalE2(SS,OS)=  1.000000  1.000000
 Range of M.O.s used for correlation:     1   320
 NBasis=   320 NAE=    30 NBE=    30 NFC=     0 NFV=     0
 NROrb=    320 NOA=    30 NOB=    30 NVA=   290 NVB=   290

 **** Warning!!: The largest alpha MO coefficient is  0.37121208D+02

   1 Symmetry operations used in ECPInt.
 ECPInt:  NShTT=    9316 NPrTT=   27240 LenC2=    9239 LenP2D=   22129.
 LDataN:  DoStor=T MaxTD1= 7 Len=  274
 Symmetrizing basis deriv contribution to polar:
 IMax=3 JMax=2 DiffMx= 0.00D+00
 G2DrvN: will do    21 centers at a time, making    1 passes.
 Calling FoFCou, ICntrl=  3107 FMM=F I1Cent=   0 AccDes= 0.00D+00.
 End of G2Drv F.D. properties file   721 does not exist.
 End of G2Drv F.D. properties file   722 does not exist.
 End of G2Drv F.D. properties file   788 does not exist.
          IDoAtm=11111111111111111111
          Differentiating once with respect to nuclear coordinates.
 Keep R1 ints in memory in canonical form, NReq=1342482924.
          There are    63 degrees of freedom in the 1st order CPHF.  IDoFFX=6 NUNeed=     0.
     57 vectors produced by pass  0 Test12= 1.38D-14 1.59D-09 XBig12= 9.07D-02 1.24D-01.
 AX will form    57 AO Fock derivatives at one time.
     57 vectors produced by pass  1 Test12= 1.38D-14 1.59D-09 XBig12= 1.90D-02 5.63D-02.
     57 vectors produced by pass  2 Test12= 1.38D-14 1.59D-09 XBig12= 2.00D-04 2.23D-03.
     57 vectors produced by pass  3 Test12= 1.38D-14 1.59D-09 XBig12= 8.29D-07 9.37D-05.
     57 vectors produced by pass  4 Test12= 1.38D-14 1.59D-09 XBig12= 1.72D-09 5.87D-06.
     48 vectors produced by pass  5 Test12= 1.38D-14 1.59D-09 XBig12= 2.93D-12 1.86D-07.
     10 vectors produced by pass  6 Test12= 1.38D-14 1.59D-09 XBig12= 3.80D-15 5.61D-09.
 InvSVY:  IOpt=1 It=  1 EMax= 4.72D-16
 Solved reduced A of dimension   343 with    63 vectors.
 End of Minotr F.D. properties file   721 does not exist.
 End of Minotr F.D. properties file   722 does not exist.
 End of Minotr F.D. properties file   788 does not exist.
   1 Symmetry operations used in ECPInt.
 ECPInt:  NShTT=    9316 NPrTT=   27240 LenC2=    9239 LenP2D=   22129.
 LDataN:  DoStor=T MaxTD1= 8 Len=  415
 Calling FoFJK, ICntrl=    100147 FMM=F ISym2X=0 I1Cent= 0 IOpClX= 0 NMat=1 NMatS=1 NMatT=0.
 -------------------------------------------------------------------
 Center     Atomic                   Forces (Hartrees/Bohr)
 Number     Number              X              Y              Z
 -------------------------------------------------------------------
      1        6           0.000286050   -0.000228131    0.000139964
      2        6          -0.000361685    0.000093849    0.000277455
      3        6           0.000251636   -0.000185832   -0.000223633
      4        1          -0.000047203   -0.000093482    0.000101624
      5        1          -0.000067529    0.000172500    0.000001199
      6        6          -0.000469142    0.000131152    0.000033755
      7        6          -0.000494074   -0.000378691   -0.000736055
      8        1           0.000161830    0.000287716    0.000007860
      9        1           0.000069797   -0.000239316   -0.000004530
     10        1           0.000059628   -0.000115507    0.000105013
     11        6          -0.000011008    0.000473470   -0.000114176
     12        6           0.000534830    0.000279343   -0.000718571
     13        1          -0.000035694    0.000100064    0.000024921
     14        1           0.000327279   -0.000054045    0.000233477
     15        6          -0.000209178   -0.000337351    0.000044263
     16        1          -0.000154911   -0.000010719    0.000276469
     17        1           0.000025337    0.000012051    0.000134025
     18        1           0.000144354    0.000179551    0.000055212
     19        1           0.000021040   -0.000030254    0.000181199
     20        1          -0.000031359   -0.000056367    0.000180529
 -------------------------------------------------------------------
 Cartesian Forces:  Max     0.000736055 RMS     0.000246322
 -----------------------------------------------------------------------------------------------
                       Internal Coordinate Forces (Hartree/Bohr or radian)
  Cent   Atom   N1       Length/X         N2         Alpha/Y        N3         Beta/Z          J
 -----------------------------------------------------------------------------------------------
      1  C 
      2  C        1   0.000303(     1)
      3  C        1   0.000413(     2)      2   0.001458(    20)
      4  H        1   0.000058(     3)      2  -0.000276(    21)      3  -0.000008(    38)     0
      5  H        1   0.000168(     4)      2  -0.000148(    22)      3   0.000053(    39)     0
      6  C        2  -0.000331(     5)      1   0.000247(    23)      3   0.000659(    40)     0
      7  C        3   0.000299(     6)      1   0.000711(    24)      2  -0.000810(    41)     0
      8  H        2  -0.000302(     7)      1   0.000277(    25)      6   0.000012(    42)     0
      9  H        2  -0.000224(     8)      1   0.000185(    26)      6   0.000119(    43)     0
     10  H        3   0.000104(     9)      1  -0.000024(    27)      7  -0.000239(    44)     0
     11  C        7   0.000591(    10)      3   0.000775(    28)      1  -0.000022(    45)     0
     12  C        6  -0.000055(    11)      2  -0.000026(    29)      1   0.001085(    46)     0
     13  H        6  -0.000097(    12)      2   0.000033(    30)     12  -0.000087(    47)     0
     14  H        7   0.000266(    13)      3  -0.000129(    31)     11  -0.000553(    48)     0
     15  C       12  -0.000401(    14)      6  -0.000261(    32)      2   0.000712(    49)     0
     16  H       12  -0.000077(    15)      6   0.000037(    33)     15  -0.000565(    50)     0
     17  H       11  -0.000009(    16)      7   0.000073(    34)      3   0.000054(    51)     0
     18  H       11   0.000213(    17)      7   0.000067(    35)     17  -0.000176(    52)     0
     19  H       15  -0.000045(    18)     12  -0.000103(    36)      6  -0.000010(    53)     0
     20  H       15  -0.000023(    19)     12  -0.000150(    37)     19  -0.000311(    54)     0
 -----------------------------------------------------------------------------------------------
 Internal  Forces:  Max     0.001457572 RMS     0.000397585

 GradGradGradGradGradGradGradGradGradGradGradGradGradGradGradGradGradGrad
 Berny optimization.
 Search for a saddle point.
 Step number   1 out of a maximum of   64
 All quantities printed in internal units (Hartrees-Bohrs-Radians)
 Swapping is turned off.
 Second derivative matrix not updated -- analytic derivatives used.
 ITU=  0
     Eigenvalues ---   -0.13784   0.00658   0.01435   0.02233   0.03586
     Eigenvalues ---    0.06031   0.06155   0.07146   0.07361   0.11598
     Eigenvalues ---    0.11783   0.11950   0.13664   0.14053   0.14572
     Eigenvalues ---    0.14622   0.16870   0.17067   0.17382   0.18613
     Eigenvalues ---    0.20148   0.22188   0.23367   0.24306   0.25517
     Eigenvalues ---    0.27352   0.28745   0.28872   0.29637   0.31332
     Eigenvalues ---    0.32736   0.32954   0.33138   0.33665   0.34156
     Eigenvalues ---    0.34947   0.35126   0.35329   0.35579   0.35756
     Eigenvalues ---    0.35876   0.36722   0.36927   0.38295   0.41910
     Eigenvalues ---    0.43367   0.44608   0.47082   0.50541   0.53557
     Eigenvalues ---    0.57681   0.76107   1.23960   2.42511
 Eigenvectors required to have negative eigenvalues:
                          D7        D12       D19       D17       A3
   1                    0.45099  -0.44733   0.24745  -0.24300   0.22743
                          A6        D10       D13       R12       R7
   1                    0.22689  -0.22643   0.22572  -0.20268  -0.19615
 RFO step:  Lambda0=1.224861291D-06 Lambda=-2.94095491D-05.
 Linear search not attempted -- option 19 set.
 Variable       Old X    -DE/DX   Delta X   Delta X   Delta X     New X
                                 (Linear)    (Quad)   (Total)
    R2        2.90869   0.00030   0.00000   0.00019   0.00019   2.90887
    R3        2.87984   0.00041   0.00000   0.00002   0.00002   2.87986
    R4        2.06306   0.00006   0.00000   0.00029   0.00029   2.06335
    R5        2.06311   0.00017   0.00000   0.00035   0.00035   2.06346
    R6        2.87930  -0.00033   0.00000  -0.00058  -0.00058   2.87872
    R7        2.62984   0.00030   0.00000  -0.00008  -0.00008   2.62976
    R8        2.06170  -0.00030   0.00000  -0.00097  -0.00097   2.06073
    R9        2.06219  -0.00022   0.00000  -0.00048  -0.00048   2.06171
   R10        2.04832   0.00010   0.00000   0.00018   0.00018   2.04850
   R11        2.60330   0.00059   0.00000   0.00184   0.00184   2.60514
   R12        2.62914  -0.00006   0.00000  -0.00064  -0.00064   2.62851
   R13        2.04788  -0.00010   0.00000  -0.00022  -0.00022   2.04766
   R14        2.05401   0.00027   0.00000   0.00088   0.00088   2.05489
   R15        2.60077  -0.00040   0.00000  -0.00091  -0.00091   2.59986
   R16        2.05283  -0.00008   0.00000  -0.00037  -0.00037   2.05246
   R17        2.04074  -0.00001   0.00000  -0.00015  -0.00015   2.04059
   R18        2.04434   0.00021   0.00000   0.00052   0.00052   2.04486
   R19        2.04089  -0.00004   0.00000   0.00007   0.00007   2.04096
   R20        2.04392  -0.00002   0.00000  -0.00001  -0.00001   2.04391
    A3        1.78622   0.00146   0.00000   0.00197   0.00197   1.78819
    A4        1.96495  -0.00028   0.00000  -0.00053  -0.00053   1.96441
    A5        1.96762  -0.00015   0.00000  -0.00185  -0.00185   1.96576
    A6        1.78426   0.00025   0.00000   0.00025   0.00025   1.78451
    A7        2.16251   0.00071   0.00000  -0.00006  -0.00006   2.16245
    A8        1.96563   0.00028   0.00000  -0.00022  -0.00022   1.96541
    A9        1.97058   0.00019   0.00000   0.00147   0.00147   1.97205
   A10        2.03261  -0.00002   0.00000   0.00028   0.00028   2.03290
   A11        2.17855   0.00077   0.00000   0.00141   0.00141   2.17997
   A12        2.16458  -0.00003   0.00000   0.00198   0.00198   2.16656
   A13        2.03188   0.00003   0.00000  -0.00036  -0.00036   2.03152
   A14        2.02890  -0.00013   0.00000  -0.00168  -0.00168   2.02722
   A15        2.17660  -0.00026   0.00000  -0.00060  -0.00060   2.17600
   A16        2.03189   0.00004   0.00000   0.00124   0.00124   2.03313
   A17        2.11739   0.00007   0.00000   0.00087   0.00087   2.11826
   A18        2.09695   0.00007   0.00000  -0.00007  -0.00007   2.09688
   A19        2.11583  -0.00010   0.00000  -0.00085  -0.00085   2.11498
   A20        2.09655  -0.00015   0.00000  -0.00032  -0.00032   2.09623
    D4        2.07761  -0.00001   0.00000   0.00261   0.00261   2.08023
    D5       -2.09580   0.00005   0.00000   0.00119   0.00119  -2.09461
    D6        0.00955   0.00066   0.00000   0.01243   0.01243   0.02198
    D7       -1.75369  -0.00081   0.00000  -0.00890  -0.00890  -1.76260
    D8       -2.07307   0.00001   0.00000   0.00246   0.00246  -2.07061
    D9        2.09859   0.00012   0.00000   0.00224   0.00224   2.10083
   D10       -2.81865  -0.00024   0.00000  -0.00604  -0.00604  -2.82469
   D11        0.33052  -0.00002   0.00000  -0.00101  -0.00101   0.32952
   D12        1.73746   0.00108   0.00000  -0.01227  -0.01227   1.72519
   D13        2.81469  -0.00009   0.00000   0.00167   0.00167   2.81636
   D14        2.87194  -0.00055   0.00000  -0.00828  -0.00828   2.86366
   D15       -0.32526   0.00071   0.00000   0.00514   0.00514  -0.32011
   D16       -2.89219  -0.00056   0.00000  -0.01185  -0.01185  -2.90405
   D17       -0.45284   0.00005   0.00000  -0.00336  -0.00336  -0.45619
   D18       -2.78704  -0.00018   0.00000  -0.00411  -0.00411  -2.79114
   D19        0.44318  -0.00001   0.00000  -0.00727  -0.00727   0.43591
   D20        2.77932  -0.00031   0.00000  -0.00359  -0.00359   2.77572
         Item               Value     Threshold  Converged?
 Maximum Force            0.001458     0.000450     NO 
 RMS     Force            0.000398     0.000300     NO 
 Maximum Displacement     0.012430     0.001800     NO 
 RMS     Displacement     0.003857     0.001200     NO 
 Predicted change in Energy=-1.410403D-05
 GradGradGradGradGradGradGradGradGradGradGradGradGradGradGradGradGradGrad

 ---------------------------------------------------------------------------------------------------
                            Z-MATRIX (ANGSTROMS AND DEGREES)
   CD    Cent   Atom    N1       Length/X        N2       Alpha/Y        N3        Beta/Z          J
 ---------------------------------------------------------------------------------------------------
      1      1  C 
      2      2  C        1   1.539308(     1)
      3      3  C        1   1.523957(     2)      2  102.456(    20)
      4      4  H        1   1.091880(     3)      2  112.553(    21)      3  119.188(    38)      0
      5      5  H        1   1.091935(     4)      2  112.630(    22)      3 -120.012(    39)      0
      6      6  C        2   1.523354(     5)      1  102.245(    23)      3    1.259(    40)      0
      7      7  C        3   1.391610(     6)      1  123.899(    24)      2 -100.989(    41)      0
      8      8  H        2   1.090489(     7)      1  112.610(    25)      6 -118.637(    42)      0
      9      9  H        2   1.091009(     8)      1  112.990(    26)      6  120.369(    43)      0
     10     10  H        3   1.084018(     9)      1  116.476(    27)      7 -161.843(    44)      0
     11     11  C        7   1.378581(    10)      3  124.903(    28)      1   18.880(    45)      0
     12     12  C        6   1.390946(    11)      2  124.135(    29)      1   98.846(    46)      0
     13     13  H        6   1.083575(    12)      2  116.398(    30)     12  161.365(    47)      0
     14     14  H        7   1.087400(    13)      3  116.151(    31)     11  164.075(    48)      0
     15     15  C       12   1.375787(    14)      6  124.676(    32)      2  -18.341(    49)      0
     16     16  H       12   1.086116(    15)      6  116.490(    33)     15 -166.390(    50)      0
     17     17  H       11   1.079833(    16)      7  121.367(    34)      3  -26.138(    51)      0
     18     18  H       11   1.082092(    17)      7  120.143(    35)     17 -159.921(    52)      0
     19     19  H       15   1.080030(    18)     12  121.179(    36)      6   24.976(    53)      0
     20     20  H       15   1.081588(    19)     12  120.105(    37)     19  159.037(    54)      0
 ---------------------------------------------------------------------------------------------------
                         Z-Matrix orientation:                         
 ---------------------------------------------------------------------
 Center     Atomic      Atomic             Coordinates (Angstroms)
 Number     Number       Type             X           Y           Z
 ---------------------------------------------------------------------
      1          6           0        0.000000    0.000000    0.000000
      2          6           0        0.000000    0.000000    1.539308
      3          6           0        1.488087    0.000000   -0.328696
      4          1           0       -0.491767   -0.880340   -0.418771
      5          1           0       -0.504122    0.872728   -0.420154
      6          6           0        1.488338    0.032717    1.862402
      7          6           0        2.198479    1.133881   -0.711103
      8          1           0       -0.462931   -0.893924    1.958546
      9          1           0       -0.526688    0.855177    1.965423
     10          1           0        1.933883   -0.962741   -0.551159
     11          6           0        1.787044    2.432052   -0.496724
     12          6           0        2.188371    1.185998    2.200968
     13          1           0        1.945049   -0.913936    2.125835
     14          1           0        3.244882    0.981086   -0.964351
     15          6           0        1.754458    2.467164    1.949728
     16          1           0        3.228632    1.055562    2.484678
     17          1           0        0.740817    2.681501   -0.400681
     18          1           0        2.444268    3.257195   -0.737803
     19          1           0        0.703383    2.690167    1.840287
     20          1           0        2.388329    3.310895    2.186703
 ---------------------------------------------------------------------
                    Distance matrix (angstroms):
                    1          2          3          4          5
     1  C    0.000000
     2  C    1.539308   0.000000
     3  C    1.523957   2.388271   0.000000
     4  H    1.091880   2.202477   2.168626   0.000000
     5  H    1.091935   2.203471   2.176905   1.753112   0.000000
     6  C    2.384273   1.523354   2.191342   3.155667   3.144133
     7  C    2.573842   3.344151   1.391610   3.373421   2.730733
     8  H    2.202115   1.090489   3.136407   2.377530   2.963270
     9  H    2.207173   1.091009   3.170745   2.949172   2.385748
    10  H    2.229474   3.006132   1.084018   2.430658   3.054502
    11  C    3.058617   3.640580   2.456111   4.021318   2.772507
    12  C    3.322622   2.575530   2.880310   4.279711   3.770668
    13  H    3.022858   2.227669   2.658724   3.523382   3.958871
    14  H    3.524452   4.214273   2.110193   4.210120   3.789844
    15  C    3.600897   3.055072   3.368837   4.675585   3.641393
    16  H    4.208551   3.525904   3.472575   5.100892   4.733384
    17  H    2.810659   3.391580   2.784608   3.769125   2.195886
    18  H    4.138613   4.665726   3.419206   5.083432   3.805205
    19  H    3.334427   2.796844   3.543621   4.390928   3.141775
    20  H    4.631179   4.133433   4.254373   5.714009   4.594196
                    6          7          8          9         10
     6  C    0.000000
     7  C    2.887869   0.000000
     8  H    2.162258   4.280435   0.000000
     9  H    2.178849   3.829883   1.750276   0.000000
    10  H    2.648533   2.119296   3.471034   3.961366   0.000000
    11  C    3.378092   1.378581   4.706682   3.728546   3.398403
    12  C    1.390946   2.912555   3.378498   2.745263   3.500864
    13  H    1.083575   3.507990   2.413867   3.043842   2.677462
    14  H    3.460546   1.087400   5.080046   4.777464   2.380737
    15  C    2.450506   3.009123   4.026637   2.793273   4.248633
    16  H    2.112360   3.358626   4.207725   3.796342   3.868621
    17  H    3.563199   2.148550   4.449565   3.246610   3.837519
    18  H    4.251132   2.137659   5.740548   4.680139   4.254784
    19  H    2.771044   3.341696   3.770940   2.212674   4.536175
    20  H    3.414910   3.629423   5.085494   3.817964   5.095722
                   11         12         13         14         15
    11  C    0.000000
    12  C    2.998542   0.000000
    13  H    4.254223   2.115318   0.000000
    14  H    2.109328   3.343269   3.850964   0.000000
    15  C    2.446920   1.375787   3.391044   3.594669   0.000000
    16  H    3.586315   1.086116   2.378082   3.449871   2.109973
    17  H    1.079833   3.331744   4.556383   3.078875   2.568623
    18  H    1.082092   3.604402   5.084090   2.423422   2.884927
    19  H    2.588931   2.144249   3.822673   4.152850   1.080030
    20  H    2.886986   2.134333   4.248459   4.011337   1.081588
                   16         17         18         19         20
    16  H    0.000000
    17  H    4.142245   0.000000
    18  H    3.980804   1.829431   0.000000
    19  H    3.076371   2.241297   3.162080   0.000000
    20  H    2.425166   3.131291   2.925533   1.828757   0.000000
 Symmetry turned off by external request.
 Stoichiometry    C8H12
 Framework group  C1[X(C8H12)]
 Deg. of freedom    54
 Full point group                 C1      NOp   1
 Rotational constants (GHZ):           2.4879669           2.3088519           1.5808818
 Standard basis: def2TZVP (5D, 7F)
 The following finite field(s) will be applied:
 An electric field of              0.0013  0.0012 -0.0047
   320 basis functions,   504 primitive gaussians,   360 cartesian basis functions
    30 alpha electrons       30 beta electrons
       nuclear repulsion energy       368.0769451085 Hartrees.
 NAtoms=   20 NActive=   20 NUniq=   20 SFac= 1.00D+00 NAtFMM=   60 NAOKFM=F Big=F
 Integral buffers will be    131072 words long.
 Raffenetti 2 integral format.
 Two-electron integral symmetry is turned off.
 One-electron integrals computed using PRISM.
   1 Symmetry operations used in ECPInt.
 ECPInt:  NShTT=    9316 NPrTT=   27240 LenC2=    9238 LenP2D=   22123.
 LDataN:  DoStor=T MaxTD1= 6 Len=  172
 NBasis=   320 RedAO= T EigKep=  2.58D-05  NBF=   320
 NBsUse=   320 1.00D-06 EigRej= -1.00D+00 NBFU=   320
 The nuclear repulsion energy is now       367.9976360354 hartrees.
 Initial guess from the checkpoint file:  "checkpoint.chk"
 B after Tr=     0.002082   -0.012146   -0.006537
         Rot=    0.999986    0.004386    0.000777   -0.002926 Ang=   0.61 deg.
 Requested convergence on RMS density matrix=1.00D-08 within 128 cycles.
 Requested convergence on MAX density matrix=1.00D-06.
 Requested convergence on             energy=1.00D-06.
 No special actions if energy rises.
 SCF Done:  E(RB3LYP) =  -312.081521105     A.U. after    9 cycles
            NFock=  9  Conv=0.53D-08     -V/T= 2.0056
   1 Symmetry operations used in ECPInt.
 ECPInt:  NShTT=    9316 NPrTT=   27240 LenC2=    9238 LenP2D=   22123.
 LDataN:  DoStor=T MaxTD1= 7 Len=  274
 Calling FoFJK, ICntrl=      2127 FMM=F ISym2X=0 I1Cent= 0 IOpClX= 0 NMat=1 NMatS=1 NMatT=0.
 -------------------------------------------------------------------
 Center     Atomic                   Forces (Hartrees/Bohr)
 Number     Number              X              Y              Z
 -------------------------------------------------------------------
      1        6          -0.000070954   -0.000176993    0.000007415
      2        6           0.000074973    0.000253591   -0.000005287
      3        6          -0.000002964   -0.000079538    0.000000668
      4        1          -0.000001015   -0.000001093    0.000000530
      5        1           0.000000015    0.000000240    0.000000912
      6        6          -0.000003523   -0.000004764   -0.000001224
      7        6           0.000001843    0.000004616    0.000008149
      8        1          -0.000001313   -0.000000837    0.000000372
      9        1           0.000000127    0.000000086   -0.000001700
     10        1           0.000000249   -0.000000870    0.000000661
     11        6          -0.000000513   -0.000001414   -0.000007219
     12        6           0.000004834    0.000007184   -0.000012057
     13        1          -0.000000505   -0.000000713   -0.000000076
     14        1           0.000000569   -0.000000625   -0.000001143
     15        6          -0.000004319    0.000002551    0.000007508
     16        1           0.000000454   -0.000002038    0.000001238
     17        1          -0.000000581    0.000001216    0.000002673
     18        1           0.000000973    0.000000270    0.000002097
     19        1           0.000000691   -0.000001117   -0.000001586
     20        1           0.000000960    0.000000247   -0.000001930
 -------------------------------------------------------------------
 Cartesian Forces:  Max     0.000253591 RMS     0.000043443
 -----------------------------------------------------------------------------------------------
                       Internal Coordinate Forces (Hartree/Bohr or radian)
  Cent   Atom   N1       Length/X         N2         Alpha/Y        N3         Beta/Z          J
 -----------------------------------------------------------------------------------------------
      1  C 
      2  C        1  -0.000015(     1)
      3  C        1  -0.000002(     2)      2  -0.000023(    20)
      4  H        1   0.000001(     3)      2  -0.000002(    21)      3   0.000001(    38)     0
      5  H        1  -0.000000(     4)      2  -0.000002(    22)      3   0.000000(    39)     0
      6  C        2  -0.000003(     5)      1  -0.000035(    23)      3   0.000006(    40)     0
      7  C        3   0.000003(     6)      1   0.000002(    24)      2   0.000010(    41)     0
      8  H        2   0.000001(     7)      1  -0.000000(    25)      6  -0.000001(    42)     0
      9  H        2  -0.000001(     8)      1  -0.000003(    26)      6  -0.000000(    43)     0
     10  H        3   0.000001(     9)      1  -0.000001(    27)      7  -0.000001(    44)     0
     11  C        7  -0.000000(    10)      3   0.000003(    28)      1   0.000002(    45)     0
     12  C        6   0.000005(    11)      2  -0.000006(    29)      1  -0.000010(    46)     0
     13  H        6   0.000000(    12)      2  -0.000002(    30)     12   0.000000(    47)     0
     14  H        7   0.000001(    13)      3  -0.000001(    31)     11   0.000002(    48)     0
     15  C       12   0.000002(    14)      6  -0.000002(    32)      2   0.000006(    49)     0
     16  H       12   0.000001(    15)      6  -0.000004(    33)     15  -0.000002(    50)     0
     17  H       11   0.000001(    16)      7   0.000003(    34)      3   0.000000(    51)     0
     18  H       11   0.000000(    17)      7   0.000000(    35)     17  -0.000004(    52)     0
     19  H       15  -0.000001(    18)     12  -0.000001(    36)      6   0.000001(    53)     0
     20  H       15   0.000000(    19)     12   0.000000(    37)     19   0.000004(    54)     0
 -----------------------------------------------------------------------------------------------
 Internal  Forces:  Max     0.000034597 RMS     0.000006676

 GradGradGradGradGradGradGradGradGradGradGradGradGradGradGradGradGradGrad
 Berny optimization.
 Search for a saddle point.
 Step number   2 out of a maximum of   64
 All quantities printed in internal units (Hartrees-Bohrs-Radians)
 Swapping is turned off.
 Update second derivatives using D2CorN and points    1    2
 ITU=  0  0
     Eigenvalues ---   -0.13781   0.00653   0.01431   0.02233   0.03586
     Eigenvalues ---    0.06031   0.06155   0.07145   0.07361   0.11598
     Eigenvalues ---    0.11783   0.11950   0.13663   0.14053   0.14572
     Eigenvalues ---    0.14622   0.16870   0.17067   0.17382   0.18613
     Eigenvalues ---    0.20148   0.22188   0.23367   0.24306   0.25517
     Eigenvalues ---    0.27352   0.28745   0.28872   0.29637   0.31331
     Eigenvalues ---    0.32736   0.32954   0.33138   0.33665   0.34156
     Eigenvalues ---    0.34947   0.35126   0.35329   0.35580   0.35756
     Eigenvalues ---    0.35876   0.36722   0.36927   0.38295   0.41910
     Eigenvalues ---    0.43367   0.44607   0.47082   0.50541   0.53557
     Eigenvalues ---    0.57681   0.76107   1.23959   2.42515
 Eigenvectors required to have negative eigenvalues:
                          D7        D12       D19       D17       A3
   1                    0.45132  -0.44697   0.24770  -0.24293   0.22743
                          A6        D10       D13       R12       R7
   1                    0.22684  -0.22632   0.22570  -0.20266  -0.19615
 RFO step:  Lambda0=4.190644498D-10 Lambda= 0.00000000D+00.
 Linear search not attempted -- option 19 set.
 Variable       Old X    -DE/DX   Delta X   Delta X   Delta X     New X
                                 (Linear)    (Quad)   (Total)
    R2        2.90887  -0.00001   0.00000  -0.00002  -0.00002   2.90885
    R3        2.87986  -0.00000   0.00000  -0.00002  -0.00002   2.87984
    R4        2.06335   0.00000   0.00000   0.00001   0.00001   2.06336
    R5        2.06346  -0.00000   0.00000  -0.00000  -0.00000   2.06346
    R6        2.87872  -0.00000   0.00000  -0.00000  -0.00000   2.87872
    R7        2.62976   0.00000   0.00000  -0.00001  -0.00001   2.62975
    R8        2.06073   0.00000   0.00000   0.00000   0.00000   2.06073
    R9        2.06171  -0.00000   0.00000   0.00000   0.00000   2.06171
   R10        2.04850   0.00000   0.00000   0.00000   0.00000   2.04850
   R11        2.60514  -0.00000   0.00000   0.00001   0.00001   2.60515
   R12        2.62851   0.00001   0.00000  -0.00000  -0.00000   2.62850
   R13        2.04766   0.00000   0.00000  -0.00000  -0.00000   2.04766
   R14        2.05489   0.00000   0.00000   0.00000   0.00000   2.05489
   R15        2.59986   0.00000   0.00000   0.00000   0.00000   2.59986
   R16        2.05246   0.00000   0.00000   0.00000   0.00000   2.05246
   R17        2.04059   0.00000   0.00000  -0.00000  -0.00000   2.04059
   R18        2.04486   0.00000   0.00000   0.00000   0.00000   2.04486
   R19        2.04096  -0.00000   0.00000  -0.00000  -0.00000   2.04096
   R20        2.04391   0.00000   0.00000  -0.00000  -0.00000   2.04390
    A3        1.78819  -0.00002   0.00000   0.00003   0.00003   1.78822
    A4        1.96441  -0.00000   0.00000   0.00000   0.00000   1.96442
    A5        1.96576  -0.00000   0.00000  -0.00003  -0.00003   1.96574
    A6        1.78451  -0.00003   0.00000   0.00001   0.00001   1.78452
    A7        2.16245   0.00000   0.00000  -0.00001  -0.00001   2.16245
    A8        1.96541  -0.00000   0.00000  -0.00001  -0.00001   1.96540
    A9        1.97205  -0.00000   0.00000  -0.00001  -0.00001   1.97204
   A10        2.03290  -0.00000   0.00000   0.00001   0.00001   2.03291
   A11        2.17997   0.00000   0.00000   0.00001   0.00001   2.17998
   A12        2.16656  -0.00001   0.00000   0.00002   0.00002   2.16658
   A13        2.03152  -0.00000   0.00000   0.00000   0.00000   2.03152
   A14        2.02722  -0.00000   0.00000  -0.00000  -0.00000   2.02722
   A15        2.17600  -0.00000   0.00000   0.00002   0.00002   2.17602
   A16        2.03313  -0.00000   0.00000  -0.00002  -0.00002   2.03311
   A17        2.11826   0.00000   0.00000   0.00002   0.00002   2.11829
   A18        2.09688   0.00000   0.00000  -0.00001  -0.00001   2.09688
   A19        2.11498  -0.00000   0.00000  -0.00001  -0.00001   2.11497
   A20        2.09623   0.00000   0.00000   0.00001   0.00001   2.09624
    D4        2.08023   0.00000   0.00000   0.00004   0.00004   2.08027
    D5       -2.09461   0.00000   0.00000   0.00002   0.00002  -2.09459
    D6        0.02198   0.00001   0.00000   0.00021   0.00021   0.02219
    D7       -1.76260   0.00001   0.00000  -0.00011  -0.00011  -1.76271
    D8       -2.07061  -0.00000   0.00000   0.00001   0.00001  -2.07060
    D9        2.10083  -0.00000   0.00000   0.00001   0.00001   2.10085
   D10       -2.82469  -0.00000   0.00000  -0.00010  -0.00010  -2.82479
   D11        0.32952   0.00000   0.00000  -0.00011  -0.00011   0.32940
   D12        1.72519  -0.00001   0.00000  -0.00025  -0.00025   1.72494
   D13        2.81636   0.00000   0.00000   0.00008   0.00008   2.81644
   D14        2.86366   0.00000   0.00000   0.00005   0.00005   2.86371
   D15       -0.32011   0.00001   0.00000   0.00011   0.00011  -0.32001
   D16       -2.90405  -0.00000   0.00000  -0.00009  -0.00009  -2.90413
   D17       -0.45619   0.00000   0.00000   0.00002   0.00002  -0.45617
   D18       -2.79114  -0.00000   0.00000  -0.00007  -0.00007  -2.79122
   D19        0.43591   0.00000   0.00000  -0.00011  -0.00011   0.43579
   D20        2.77572   0.00000   0.00000   0.00007   0.00007   2.77579
         Item               Value     Threshold  Converged?
 Maximum Force            0.000035     0.000450     YES
 RMS     Force            0.000007     0.000300     YES
 Maximum Displacement     0.000255     0.001800     YES
 RMS     Displacement     0.000062     0.001200     YES
 Predicted change in Energy=-1.767227D-09
 Optimization completed.
    -- Stationary point found.
                       ----------------------------
                       !   Optimized Parameters   !
                       ! (Angstroms and Degrees)  !
 ----------------------                            ----------------------
 !      Name          Value   Derivative information (Atomic Units)     !
 ------------------------------------------------------------------------
 !       R2          1.5393   -DE/DX =    0.0                           !
 !       R3          1.524    -DE/DX =    0.0                           !
 !       R4          1.0919   -DE/DX =    0.0                           !
 !       R5          1.0919   -DE/DX =    0.0                           !
 !       R6          1.5234   -DE/DX =    0.0                           !
 !       R7          1.3916   -DE/DX =    0.0                           !
 !       R8          1.0905   -DE/DX =    0.0                           !
 !       R9          1.091    -DE/DX =    0.0                           !
 !       R10         1.084    -DE/DX =    0.0                           !
 !       R11         1.3786   -DE/DX =    0.0                           !
 !       R12         1.3909   -DE/DX =    0.0                           !
 !       R13         1.0836   -DE/DX =    0.0                           !
 !       R14         1.0874   -DE/DX =    0.0                           !
 !       R15         1.3758   -DE/DX =    0.0                           !
 !       R16         1.0861   -DE/DX =    0.0                           !
 !       R17         1.0798   -DE/DX =    0.0                           !
 !       R18         1.0821   -DE/DX =    0.0                           !
 !       R19         1.08     -DE/DX =    0.0                           !
 !       R20         1.0816   -DE/DX =    0.0                           !
 !       A3        102.4558   -DE/DX =    0.0                           !
 !       A4        112.5526   -DE/DX =    0.0                           !
 !       A5        112.63     -DE/DX =    0.0                           !
 !       A6        102.2451   -DE/DX =    0.0                           !
 !       A7        123.8994   -DE/DX =    0.0                           !
 !       A8        112.6096   -DE/DX =    0.0                           !
 !       A9        112.9899   -DE/DX =    0.0                           !
 !       A10       116.4763   -DE/DX =    0.0                           !
 !       A11       124.9029   -DE/DX =    0.0                           !
 !       A12       124.1348   -DE/DX =    0.0                           !
 !       A13       116.3976   -DE/DX =    0.0                           !
 !       A14       116.1513   -DE/DX =    0.0                           !
 !       A15       124.6756   -DE/DX =    0.0                           !
 !       A16       116.4898   -DE/DX =    0.0                           !
 !       A17       121.3674   -DE/DX =    0.0                           !
 !       A18       120.1426   -DE/DX =    0.0                           !
 !       A19       121.1794   -DE/DX =    0.0                           !
 !       A20       120.1049   -DE/DX =    0.0                           !
 !       D4        119.1882   -DE/DX =    0.0                           !
 !       D5       -120.0124   -DE/DX =    0.0                           !
 !       D6          1.2593   -DE/DX =    0.0                           !
 !       D7       -100.9893   -DE/DX =    0.0                           !
 !       D8       -118.6373   -DE/DX =    0.0                           !
 !       D9        120.3689   -DE/DX =    0.0                           !
 !       D10      -161.8427   -DE/DX =    0.0                           !
 !       D11        18.8799   -DE/DX =    0.0                           !
 !       D12        98.8462   -DE/DX =    0.0                           !
 !       D13       161.3654   -DE/DX =    0.0                           !
 !       D14       164.0754   -DE/DX =    0.0                           !
 !       D15       -18.3411   -DE/DX =    0.0                           !
 !       D16      -166.3897   -DE/DX =    0.0                           !
 !       D17       -26.1378   -DE/DX =    0.0                           !
 !       D18      -159.9207   -DE/DX =    0.0                           !
 !       D19        24.9757   -DE/DX =    0.0                           !
 !       D20       159.0372   -DE/DX =    0.0                           !
 ------------------------------------------------------------------------
 GradGradGradGradGradGradGradGradGradGradGradGradGradGradGradGradGradGrad

 ---------------------------------------------------------------------------------------------------
                            Z-MATRIX (ANGSTROMS AND DEGREES)
   CD    Cent   Atom    N1       Length/X        N2       Alpha/Y        N3        Beta/Z          J
 ---------------------------------------------------------------------------------------------------
      1      1  C 
      2      2  C        1   1.539308(     1)
      3      3  C        1   1.523957(     2)      2  102.456(    20)
      4      4  H        1   1.091880(     3)      2  112.553(    21)      3  119.188(    38)      0
      5      5  H        1   1.091935(     4)      2  112.630(    22)      3 -120.012(    39)      0
      6      6  C        2   1.523354(     5)      1  102.245(    23)      3    1.259(    40)      0
      7      7  C        3   1.391610(     6)      1  123.899(    24)      2 -100.989(    41)      0
      8      8  H        2   1.090489(     7)      1  112.610(    25)      6 -118.637(    42)      0
      9      9  H        2   1.091009(     8)      1  112.990(    26)      6  120.369(    43)      0
     10     10  H        3   1.084018(     9)      1  116.476(    27)      7 -161.843(    44)      0
     11     11  C        7   1.378581(    10)      3  124.903(    28)      1   18.880(    45)      0
     12     12  C        6   1.390946(    11)      2  124.135(    29)      1   98.846(    46)      0
     13     13  H        6   1.083575(    12)      2  116.398(    30)     12  161.365(    47)      0
     14     14  H        7   1.087400(    13)      3  116.151(    31)     11  164.075(    48)      0
     15     15  C       12   1.375787(    14)      6  124.676(    32)      2  -18.341(    49)      0
     16     16  H       12   1.086116(    15)      6  116.490(    33)     15 -166.390(    50)      0
     17     17  H       11   1.079833(    16)      7  121.367(    34)      3  -26.138(    51)      0
     18     18  H       11   1.082092(    17)      7  120.143(    35)     17 -159.921(    52)      0
     19     19  H       15   1.080030(    18)     12  121.179(    36)      6   24.976(    53)      0
     20     20  H       15   1.081588(    19)     12  120.105(    37)     19  159.037(    54)      0
 ---------------------------------------------------------------------------------------------------
                         Z-Matrix orientation:                         
 ---------------------------------------------------------------------
 Center     Atomic      Atomic             Coordinates (Angstroms)
 Number     Number       Type             X           Y           Z
 ---------------------------------------------------------------------
      1          6           0        0.000000    0.000000    0.000000
      2          6           0        0.000000    0.000000    1.539308
      3          6           0        1.488087    0.000000   -0.328696
      4          1           0       -0.491767   -0.880340   -0.418771
      5          1           0       -0.504122    0.872728   -0.420154
      6          6           0        1.488338    0.032717    1.862402
      7          6           0        2.198479    1.133881   -0.711103
      8          1           0       -0.462931   -0.893924    1.958546
      9          1           0       -0.526688    0.855177    1.965423
     10          1           0        1.933883   -0.962741   -0.551159
     11          6           0        1.787044    2.432052   -0.496724
     12          6           0        2.188371    1.185998    2.200968
     13          1           0        1.945049   -0.913936    2.125835
     14          1           0        3.244882    0.981086   -0.964351
     15          6           0        1.754458    2.467164    1.949728
     16          1           0        3.228632    1.055562    2.484678
     17          1           0        0.740817    2.681501   -0.400681
     18          1           0        2.444268    3.257195   -0.737803
     19          1           0        0.703383    2.690167    1.840287
     20          1           0        2.388329    3.310895    2.186703
 ---------------------------------------------------------------------
                    Distance matrix (angstroms):
                    1          2          3          4          5
     1  C    0.000000
     2  C    1.539308   0.000000
     3  C    1.523957   2.388271   0.000000
     4  H    1.091880   2.202477   2.168626   0.000000
     5  H    1.091935   2.203471   2.176905   1.753112   0.000000
     6  C    2.384273   1.523354   2.191342   3.155667   3.144133
     7  C    2.573842   3.344151   1.391610   3.373421   2.730733
     8  H    2.202115   1.090489   3.136407   2.377530   2.963270
     9  H    2.207173   1.091009   3.170745   2.949172   2.385748
    10  H    2.229474   3.006132   1.084018   2.430658   3.054502
    11  C    3.058617   3.640580   2.456111   4.021318   2.772507
    12  C    3.322622   2.575530   2.880310   4.279711   3.770668
    13  H    3.022858   2.227669   2.658724   3.523382   3.958871
    14  H    3.524452   4.214273   2.110193   4.210120   3.789844
    15  C    3.600897   3.055072   3.368837   4.675585   3.641393
    16  H    4.208551   3.525904   3.472575   5.100892   4.733384
    17  H    2.810659   3.391580   2.784608   3.769125   2.195886
    18  H    4.138613   4.665726   3.419206   5.083432   3.805205
    19  H    3.334427   2.796844   3.543621   4.390928   3.141775
    20  H    4.631179   4.133433   4.254373   5.714009   4.594196
                    6          7          8          9         10
     6  C    0.000000
     7  C    2.887869   0.000000
     8  H    2.162258   4.280435   0.000000
     9  H    2.178849   3.829883   1.750276   0.000000
    10  H    2.648533   2.119296   3.471034   3.961366   0.000000
    11  C    3.378092   1.378581   4.706682   3.728546   3.398403
    12  C    1.390946   2.912555   3.378498   2.745263   3.500864
    13  H    1.083575   3.507990   2.413867   3.043842   2.677462
    14  H    3.460546   1.087400   5.080046   4.777464   2.380737
    15  C    2.450506   3.009123   4.026637   2.793273   4.248633
    16  H    2.112360   3.358626   4.207725   3.796342   3.868621
    17  H    3.563199   2.148550   4.449565   3.246610   3.837519
    18  H    4.251132   2.137659   5.740548   4.680139   4.254784
    19  H    2.771044   3.341696   3.770940   2.212674   4.536175
    20  H    3.414910   3.629423   5.085494   3.817964   5.095722
                   11         12         13         14         15
    11  C    0.000000
    12  C    2.998542   0.000000
    13  H    4.254223   2.115318   0.000000
    14  H    2.109328   3.343269   3.850964   0.000000
    15  C    2.446920   1.375787   3.391044   3.594669   0.000000
    16  H    3.586315   1.086116   2.378082   3.449871   2.109973
    17  H    1.079833   3.331744   4.556383   3.078875   2.568623
    18  H    1.082092   3.604402   5.084090   2.423422   2.884927
    19  H    2.588931   2.144249   3.822673   4.152850   1.080030
    20  H    2.886986   2.134333   4.248459   4.011337   1.081588
                   16         17         18         19         20
    16  H    0.000000
    17  H    4.142245   0.000000
    18  H    3.980804   1.829431   0.000000
    19  H    3.076371   2.241297   3.162080   0.000000
    20  H    2.425166   3.131291   2.925533   1.828757   0.000000
 Symmetry turned off by external request.
 Stoichiometry    C8H12
 Framework group  C1[X(C8H12)]
 Deg. of freedom    54
 Full point group                 C1      NOp   1
 Rotational constants (GHZ):           2.4879669           2.3088519           1.5808818
 1\1\GINC-BHC0068\FTS\RB3LYP\def2TZVP\C8H12\DHANAWAY\10-Jun-2022\1\\# O
 pt=(TS, CalcFC, noeigentest, Z-matrix, MaxStep=10) geom=allcheckpoint 
 guess=read Field=read NoSymm B3LYP/Def2TZVP freq=noraman pop=none\\ts_
 zmat_initalOpt\\0,1\C\C,1,R2\C,1,R3,2,A3\H,1,R4,2,A4,3,D4,0\H,1,R5,2,A
 5,3,D5,0\C,2,R6,1,A6,3,D6,0\C,3,R7,1,A7,2,D7,0\H,2,R8,1,A8,6,D8,0\H,2,
 R9,1,A9,6,D9,0\H,3,R10,1,A10,7,D10,0\C,7,R11,3,A11,1,D11,0\C,6,R12,2,A
 12,1,D12,0\H,6,R13,2,A13,12,D13,0\H,7,R14,3,A14,11,D14,0\C,12,R15,6,A1
 5,2,D15,0\H,12,R16,6,A16,15,D16,0\H,11,R17,7,A17,3,D17,0\H,11,R18,7,A1
 8,17,D18,0\H,15,R19,12,A19,6,D19,0\H,15,R20,12,A20,19,D20,0\\R2=1.5393
 0778\R3=1.52395696\R4=1.09188017\R5=1.09193499\R6=1.52335447\R7=1.3916
 0954\R8=1.0904893\R9=1.09100937\R10=1.084018\R11=1.37858074\R12=1.3909
 4584\R13=1.08357456\R14=1.08740024\R15=1.37578717\R16=1.08611583\R17=1
 .07983309\R18=1.08209241\R19=1.08003012\R20=1.08158815\A3=102.4557548\
 A4=112.55260819\A5=112.63002761\A6=102.24508587\A7=123.8993741\A8=112.
 60957952\A9=112.98993011\A10=116.47631567\A11=124.90289987\A12=124.134
 843\A13=116.39756885\A14=116.15131408\A15=124.67560558\A16=116.4897788
 3\A17=121.3674423\A18=120.14262456\A19=121.17939728\A20=120.10494755\D
 4=119.18819845\D5=-120.01241956\D6=1.25929112\D7=-100.98934708\D8=-118
 .63730856\D9=120.36889377\D10=-161.84270455\D11=18.87988153\D12=98.846
 15768\D13=161.36544551\D14=164.07539178\D15=-18.34108708\D16=-166.3896
 9192\D17=-26.13779536\D18=-159.92066577\D19=24.97567336\D20=159.037223
 58\\Version=ES64L-G16RevA.03\HF=-312.0815211\RMSD=5.279e-09\RMSF=4.344
 e-05\Dipole=-0.1901768,-0.311643,0.5486051\PG=C01 [X(C8H12)]\\@


 CONFIDENCE IS WHAT YOU FEEL BEFORE YOU FULLY
 COMPREHEND THE SITUATION.
 Job cpu time:       0 days  2 hours  9 minutes 47.5 seconds.
 Elapsed time:       0 days  0 hours 10 minutes 50.1 seconds.
 File lengths (MBytes):  RWF=    161 Int=      0 D2E=      0 Chk=     32 Scr=      1
 Normal termination of Gaussian 16 at Fri Jun 10 03:29:14 2022.
 Link1:  Proceeding to internal job step number  2.
 --------------------------------------------------------------------
 #N Geom=AllCheck Guess=TCheck SCRF=Check GenChk RB3LYP/def2TZVP Freq
 --------------------------------------------------------------------
 1/5=1,8=10,10=4,11=1,29=7,30=1,38=1,40=1/1,3;
 2/12=2,15=1,40=1/2;
 3/5=44,7=101,11=2,14=-4,25=1,30=1,70=2,71=2,74=-5,116=1,140=1/1,2,3;
 4/5=101/1;
 5/5=2,38=6,98=1/2;
 8/6=4,10=90,11=11/1;
 11/6=1,8=1,9=11,15=111,16=1,31=1/1,2,10;
 10/6=1,31=1/2;
 7/8=1,10=1,25=1,30=1/1,2,3,16;
 1/5=1,8=10,10=4,11=1,30=1/3;
 99//99;
 Structure from the checkpoint file:  "checkpoint.chk"
 -----------------
 ts_zmat_initalOpt
 -----------------
 Charge =  0 Multiplicity = 1
 Z-Matrix found in chk file.
 C
 C,1,R2
 C,1,R3,2,A3
 H,1,R4,2,A4,3,D4,0
 H,1,R5,2,A5,3,D5,0
 C,2,R6,1,A6,3,D6,0
 C,3,R7,1,A7,2,D7,0
 H,2,R8,1,A8,6,D8,0
 H,2,R9,1,A9,6,D9,0
 H,3,R10,1,A10,7,D10,0
 C,7,R11,3,A11,1,D11,0
 C,6,R12,2,A12,1,D12,0
 H,6,R13,2,A13,12,D13,0
 H,7,R14,3,A14,11,D14,0
 C,12,R15,6,A15,2,D15,0
 H,12,R16,6,A16,15,D16,0
 H,11,R17,7,A17,3,D17,0
 H,11,R18,7,A18,17,D18,0
 H,15,R19,12,A19,6,D19,0
 H,15,R20,12,A20,19,D20,0
      Variables:
 R2=1.53930778
 R3=1.52395696
 R4=1.09188017
 R5=1.09193499
 R6=1.52335447
 R7=1.39160954
 R8=1.0904893
 R9=1.09100937
 R10=1.084018
 R11=1.37858074
 R12=1.39094584
 R13=1.08357456
 R14=1.08740024
 R15=1.37578717
 R16=1.08611583
 R17=1.07983309
 R18=1.08209241
 R19=1.08003012
 R20=1.08158815
 A3=102.4557548
 A4=112.55260819
 A5=112.63002761
 A6=102.24508587
 A7=123.8993741
 A8=112.60957952
 A9=112.98993011
 A10=116.47631567
 A11=124.90289987
 A12=124.134843
 A13=116.39756885
 A14=116.15131408
 A15=124.67560558
 A16=116.48977883
 A17=121.3674423
 A18=120.14262456
 A19=121.17939728
 A20=120.10494755
 D4=119.18819845
 D5=-120.01241956
 D6=1.25929112
 D7=-100.98934708
 D8=-118.63730856
 D9=120.36889377
 D10=-161.84270455
 D11=18.87988153
 D12=98.84615768
 D13=161.36544551
 D14=164.07539178
 D15=-18.34108708
 D16=-166.38969192
 D17=-26.13779536
 D18=-159.92066577
 D19=24.97567336
 D20=159.03722358
 Recover connectivity data from disk.

 GradGradGradGradGradGradGradGradGradGradGradGradGradGradGradGradGradGrad
 Berny optimization.
 Initialization pass.
                       ----------------------------
                       !    Initial Parameters    !
                       ! (Angstroms and Degrees)  !
 ----------------------                            ----------------------
 !      Name          Value   Derivative information (Atomic Units)     !
 ------------------------------------------------------------------------
 !       R2          1.5393   calculate D2E/DX2 analytically            !
 !       R3          1.524    calculate D2E/DX2 analytically            !
 !       R4          1.0919   calculate D2E/DX2 analytically            !
 !       R5          1.0919   calculate D2E/DX2 analytically            !
 !       R6          1.5234   calculate D2E/DX2 analytically            !
 !       R7          1.3916   calculate D2E/DX2 analytically            !
 !       R8          1.0905   calculate D2E/DX2 analytically            !
 !       R9          1.091    calculate D2E/DX2 analytically            !
 !       R10         1.084    calculate D2E/DX2 analytically            !
 !       R11         1.3786   calculate D2E/DX2 analytically            !
 !       R12         1.3909   calculate D2E/DX2 analytically            !
 !       R13         1.0836   calculate D2E/DX2 analytically            !
 !       R14         1.0874   calculate D2E/DX2 analytically            !
 !       R15         1.3758   calculate D2E/DX2 analytically            !
 !       R16         1.0861   calculate D2E/DX2 analytically            !
 !       R17         1.0798   calculate D2E/DX2 analytically            !
 !       R18         1.0821   calculate D2E/DX2 analytically            !
 !       R19         1.08     calculate D2E/DX2 analytically            !
 !       R20         1.0816   calculate D2E/DX2 analytically            !
 !       A3        102.4558   calculate D2E/DX2 analytically            !
 !       A4        112.5526   calculate D2E/DX2 analytically            !
 !       A5        112.63     calculate D2E/DX2 analytically            !
 !       A6        102.2451   calculate D2E/DX2 analytically            !
 !       A7        123.8994   calculate D2E/DX2 analytically            !
 !       A8        112.6096   calculate D2E/DX2 analytically            !
 !       A9        112.9899   calculate D2E/DX2 analytically            !
 !       A10       116.4763   calculate D2E/DX2 analytically            !
 !       A11       124.9029   calculate D2E/DX2 analytically            !
 !       A12       124.1348   calculate D2E/DX2 analytically            !
 !       A13       116.3976   calculate D2E/DX2 analytically            !
 !       A14       116.1513   calculate D2E/DX2 analytically            !
 !       A15       124.6756   calculate D2E/DX2 analytically            !
 !       A16       116.4898   calculate D2E/DX2 analytically            !
 !       A17       121.3674   calculate D2E/DX2 analytically            !
 !       A18       120.1426   calculate D2E/DX2 analytically            !
 !       A19       121.1794   calculate D2E/DX2 analytically            !
 !       A20       120.1049   calculate D2E/DX2 analytically            !
 !       D4        119.1882   calculate D2E/DX2 analytically            !
 !       D5       -120.0124   calculate D2E/DX2 analytically            !
 !       D6          1.2593   calculate D2E/DX2 analytically            !
 !       D7       -100.9893   calculate D2E/DX2 analytically            !
 !       D8       -118.6373   calculate D2E/DX2 analytically            !
 !       D9        120.3689   calculate D2E/DX2 analytically            !
 !       D10      -161.8427   calculate D2E/DX2 analytically            !
 !       D11        18.8799   calculate D2E/DX2 analytically            !
 !       D12        98.8462   calculate D2E/DX2 analytically            !
 !       D13       161.3654   calculate D2E/DX2 analytically            !
 !       D14       164.0754   calculate D2E/DX2 analytically            !
 !       D15       -18.3411   calculate D2E/DX2 analytically            !
 !       D16      -166.3897   calculate D2E/DX2 analytically            !
 !       D17       -26.1378   calculate D2E/DX2 analytically            !
 !       D18      -159.9207   calculate D2E/DX2 analytically            !
 !       D19        24.9757   calculate D2E/DX2 analytically            !
 !       D20       159.0372   calculate D2E/DX2 analytically            !
 ------------------------------------------------------------------------
 Trust Radius=1.00D-01 FncErr=1.00D-07 GrdErr=1.00D-07 EigMax=2.50D+02 EigMin=1.00D-04
 Number of steps in this run=      2 maximum allowed number of steps=      2.
 Search for a saddle point of order  1.
 GradGradGradGradGradGradGradGradGradGradGradGradGradGradGradGradGradGrad

                          Input orientation:                          
 ---------------------------------------------------------------------
 Center     Atomic      Atomic             Coordinates (Angstroms)
 Number     Number       Type             X           Y           Z
 ---------------------------------------------------------------------
      1          6           0        0.000000    0.000000    0.000000
      2          6           0        0.000000    0.000000    1.539308
      3          6           0        1.488087    0.000000   -0.328696
      4          1           0       -0.491767   -0.880340   -0.418771
      5          1           0       -0.504122    0.872728   -0.420154
      6          6           0        1.488338    0.032717    1.862402
      7          6           0        2.198479    1.133881   -0.711103
      8          1           0       -0.462931   -0.893924    1.958546
      9          1           0       -0.526688    0.855177    1.965423
     10          1           0        1.933883   -0.962741   -0.551159
     11          6           0        1.787044    2.432052   -0.496724
     12          6           0        2.188371    1.185998    2.200968
     13          1           0        1.945049   -0.913936    2.125835
     14          1           0        3.244882    0.981086   -0.964351
     15          6           0        1.754458    2.467164    1.949728
     16          1           0        3.228632    1.055562    2.484678
     17          1           0        0.740817    2.681501   -0.400681
     18          1           0        2.444268    3.257195   -0.737803
     19          1           0        0.703383    2.690167    1.840287
     20          1           0        2.388329    3.310895    2.186703
 ---------------------------------------------------------------------
                    Distance matrix (angstroms):
                    1          2          3          4          5
     1  C    0.000000
     2  C    1.539308   0.000000
     3  C    1.523957   2.388271   0.000000
     4  H    1.091880   2.202477   2.168626   0.000000
     5  H    1.091935   2.203471   2.176905   1.753112   0.000000
     6  C    2.384273   1.523354   2.191342   3.155667   3.144133
     7  C    2.573842   3.344151   1.391610   3.373421   2.730733
     8  H    2.202115   1.090489   3.136407   2.377530   2.963270
     9  H    2.207173   1.091009   3.170745   2.949172   2.385748
    10  H    2.229474   3.006132   1.084018   2.430658   3.054502
    11  C    3.058617   3.640580   2.456111   4.021318   2.772507
    12  C    3.322622   2.575530   2.880310   4.279711   3.770668
    13  H    3.022858   2.227669   2.658724   3.523382   3.958871
    14  H    3.524452   4.214273   2.110193   4.210120   3.789844
    15  C    3.600897   3.055072   3.368837   4.675585   3.641393
    16  H    4.208551   3.525904   3.472575   5.100892   4.733384
    17  H    2.810659   3.391580   2.784608   3.769125   2.195886
    18  H    4.138613   4.665726   3.419206   5.083432   3.805205
    19  H    3.334427   2.796844   3.543621   4.390928   3.141775
    20  H    4.631179   4.133433   4.254373   5.714009   4.594196
                    6          7          8          9         10
     6  C    0.000000
     7  C    2.887869   0.000000
     8  H    2.162258   4.280435   0.000000
     9  H    2.178849   3.829883   1.750276   0.000000
    10  H    2.648533   2.119296   3.471034   3.961366   0.000000
    11  C    3.378092   1.378581   4.706682   3.728546   3.398403
    12  C    1.390946   2.912555   3.378498   2.745263   3.500864
    13  H    1.083575   3.507990   2.413867   3.043842   2.677462
    14  H    3.460546   1.087400   5.080046   4.777464   2.380737
    15  C    2.450506   3.009123   4.026637   2.793273   4.248633
    16  H    2.112360   3.358626   4.207725   3.796342   3.868621
    17  H    3.563199   2.148550   4.449565   3.246610   3.837519
    18  H    4.251132   2.137659   5.740548   4.680139   4.254784
    19  H    2.771044   3.341696   3.770940   2.212674   4.536175
    20  H    3.414910   3.629423   5.085494   3.817964   5.095722
                   11         12         13         14         15
    11  C    0.000000
    12  C    2.998542   0.000000
    13  H    4.254223   2.115318   0.000000
    14  H    2.109328   3.343269   3.850964   0.000000
    15  C    2.446920   1.375787   3.391044   3.594669   0.000000
    16  H    3.586315   1.086116   2.378082   3.449871   2.109973
    17  H    1.079833   3.331744   4.556383   3.078875   2.568623
    18  H    1.082092   3.604402   5.084090   2.423422   2.884927
    19  H    2.588931   2.144249   3.822673   4.152850   1.080030
    20  H    2.886986   2.134333   4.248459   4.011337   1.081588
                   16         17         18         19         20
    16  H    0.000000
    17  H    4.142245   0.000000
    18  H    3.980804   1.829431   0.000000
    19  H    3.076371   2.241297   3.162080   0.000000
    20  H    2.425166   3.131291   2.925533   1.828757   0.000000
 Symmetry turned off by external request.
 Stoichiometry    C8H12
 Framework group  C1[X(C8H12)]
 Deg. of freedom    54
 Full point group                 C1      NOp   1
 Rotational constants (GHZ):           2.4879669           2.3088519           1.5808818
 Standard basis: def2TZVP (5D, 7F)
 The following finite field(s) will be applied:
 An electric field of              0.0013  0.0012 -0.0047
   320 basis functions,   504 primitive gaussians,   360 cartesian basis functions
    30 alpha electrons       30 beta electrons
       nuclear repulsion energy       368.0769451085 Hartrees.
 NAtoms=   20 NActive=   20 NUniq=   20 SFac= 1.00D+00 NAtFMM=   60 NAOKFM=F Big=F
 Integral buffers will be    131072 words long.
 Raffenetti 2 integral format.
 Two-electron integral symmetry is turned off.
 One-electron integrals computed using PRISM.
   1 Symmetry operations used in ECPInt.
 ECPInt:  NShTT=    9316 NPrTT=   27240 LenC2=    9238 LenP2D=   22123.
 LDataN:  DoStor=T MaxTD1= 6 Len=  172
 NBasis=   320 RedAO= T EigKep=  2.58D-05  NBF=   320
 NBsUse=   320 1.00D-06 EigRej= -1.00D+00 NBFU=   320
 The nuclear repulsion energy is now       367.9976360354 hartrees.
 Initial guess from the checkpoint file:  "checkpoint.chk"
 B after Tr=     0.000000    0.000000    0.000000
         Rot=    1.000000    0.000000    0.000000    0.000000 Ang=   0.00 deg.
 Requested convergence on RMS density matrix=1.00D-08 within 128 cycles.
 Requested convergence on MAX density matrix=1.00D-06.
 Requested convergence on             energy=1.00D-06.
 No special actions if energy rises.
 SCF Done:  E(RB3LYP) =  -312.081521105     A.U. after    1 cycles
            NFock=  1  Conv=0.27D-08     -V/T= 2.0056
 DoSCS=F DFT=T ScalE2(SS,OS)=  1.000000  1.000000
 Range of M.O.s used for correlation:     1   320
 NBasis=   320 NAE=    30 NBE=    30 NFC=     0 NFV=     0
 NROrb=    320 NOA=    30 NOB=    30 NVA=   290 NVB=   290

 **** Warning!!: The largest alpha MO coefficient is  0.35790272D+02

   1 Symmetry operations used in ECPInt.
 ECPInt:  NShTT=    9316 NPrTT=   27240 LenC2=    9238 LenP2D=   22123.
[...]
 0,-0.00001953,0.00013187,0.09870800,0.24511682,0.01088205,0.02597139,-
 0.01283862,0.04153401,0.08149445,-0.08312874,-0.00023251,0.00046642,-0
 .00290480,-0.00022895,0.00006981,0.00250152,0.00097464,0.00030803,-0.0
 0415182,-0.00362309,-0.00935520,0.00329391,0.00093638,-0.00068620,0.00
 013892,-0.04293405,-0.08812240,0.09164143,0.00102699,-0.00289507,-0.00
 127608,-0.10615541,0.09656831,0.04708138,-0.00126042,-0.00133314,0.001
 62075,-0.00015336,-0.00028600,-0.00106533,0.00105895,-0.00008750,0.000
 16572,-0.01570009,0.02659430,0.00794069,0.00021259,0.00099560,-0.00012
 637,0.00770074,-0.01081547,-0.00581911,0.11484011,-0.00239657,0.000921
 35,0.00228057,0.09723063,-0.21262546,-0.07916316,0.00034374,-0.0000142
 8,0.00109704,0.00017807,0.00079785,-0.00028469,-0.00008812,0.00166071,
 -0.00000362,0.00146292,0.00194713,0.00180818,-0.00017237,0.00002034,-0
 .00010779,0.01302994,-0.02133907,-0.01009409,-0.10691597,0.22899922,0.
 01295582,-0.02490429,-0.01251884,0.04722083,-0.07862385,-0.08388253,0.
 00009832,0.00084891,-0.00352309,0.00088548,-0.00031012,-0.00389341,-0.
 00011107,-0.00002248,0.00259196,-0.00349032,0.00942853,0.00324409,0.00
 052839,-0.00157052,-0.00020164,-0.00653115,0.00948949,0.00543729,-0.04
 986372,0.08512519,0.09221908,-0.01059532,0.02507338,0.00441652,-0.0014
 2180,0.00011571,-0.00046087,-0.09987693,0.10194571,0.03157184,0.001736
 47,-0.00012117,-0.00056448,-0.00479575,0.00013407,0.00208691,-0.000270
 24,-0.00300929,-0.00260858,0.00788880,-0.01374888,-0.00400138,-0.00001
 323,0.00001953,0.00047335,0.00010197,-0.00007989,0.00043618,0.10484784
 ,-0.00269838,0.00270967,0.00106834,0.00002422,-0.00011338,-0.00005536,
 0.10018061,-0.27339150,-0.04879598,0.00040036,0.00130495,-0.00001750,-
 0.00064676,0.00078311,-0.00006211,0.00017489,0.00002493,0.00054988,0.0
 1265187,-0.02116058,-0.00727922,0.00002476,0.00002270,-0.00001353,-0.0
 0001465,-0.00001203,-0.00002661,-0.10596535,0.29094003,0.00115708,-0.0
 0352389,0.00099080,0.00009344,0.00098867,0.00000698,0.03072594,-0.0596
 5978,-0.03909426,0.00028597,0.00052562,0.00122400,-0.00064110,0.001008
 90,-0.00086606,0.00057189,-0.00849974,-0.00716217,-0.00345382,0.017742
 92,0.00439152,0.00032559,0.00001324,-0.00021866,-0.00006736,-0.0000894
 0,0.00007565,-0.03273115,0.05240048,0.04002422,0.00168839,0.00069653,-
 0.00224638,0.00305956,0.00001187,0.00139708,0.01621829,-0.00806452,-0.
 01370133,0.00023075,0.00017939,0.00024574,-0.00033009,-0.00124405,-0.0
 0036617,0.00076083,0.00177526,0.00910122,-0.14088805,0.07295174,0.0281
 9428,0.00027515,0.00000422,-0.00024163,0.00011752,0.00010269,-0.000055
 40,-0.00017512,-0.00427724,0.00403482,0.62831623,-0.00362232,-0.000230
 53,-0.00037773,-0.00481621,0.00089614,-0.00215326,-0.00657241,-0.06214
 010,0.03639409,0.00004704,-0.00030655,-0.00019543,-0.00084500,-0.00025
 356,-0.00007603,0.00135985,-0.01708948,-0.03098945,0.10216697,-0.33063
 500,-0.04309950,-0.00064156,0.00011693,0.00004599,-0.00091319,-0.00007
 524,0.00051001,-0.00356927,-0.00190613,-0.00201936,-0.02059962,0.69608
 871,-0.00365757,0.00094306,-0.00153408,-0.00424031,0.00038180,-0.00144
 908,-0.01066353,-0.01698953,0.03625557,-0.00069311,0.00029276,-0.00012
 709,-0.00118228,-0.00040920,-0.00038261,-0.00727310,-0.02161737,-0.033
 64746,0.03224246,0.00450905,-0.05333778,-0.00037927,0.00001122,0.00019
 122,-0.00030460,-0.00023126,0.00059890,0.00105667,0.00192400,0.0013242
 5,-0.09889194,-0.03421311,0.08682260,-0.00192429,-0.00096704,0.0003387
 4,-0.01388019,-0.02534898,-0.01114556,-0.00191357,0.00489347,-0.004773
 15,0.00029387,0.00014666,-0.00100895,0.00015756,-0.00010198,-0.0004869
 0,-0.17694465,-0.11836187,-0.04144966,0.00484186,-0.00562517,0.0039064
 1,-0.00430599,-0.00010624,-0.00146938,0.00205140,-0.00099937,-0.000048
 32,0.00081597,-0.00008672,0.00141267,-0.00146949,0.00119641,0.00596401
 ,0.62909826,0.01130330,-0.00048056,-0.00417753,0.00398117,0.00754260,0
 .00065064,-0.00171441,0.02203910,-0.06791309,0.00135490,0.00001111,0.0
 0067624,0.00102662,-0.00007307,0.00128016,-0.09696643,-0.25294937,0.01
 106135,-0.00649204,-0.05534558,0.00212749,0.00343647,0.00020476,-0.000
 31331,0.00170469,-0.00049961,-0.00084899,0.00173634,0.00004773,0.00451
 017,-0.00700090,0.02594257,0.05231895,-0.01610941,0.68498110,0.0006792
 9,0.00069035,-0.00083238,-0.00174047,-0.00357310,0.00095533,-0.0018895
 9,-0.00104094,-0.01619726,0.00020465,-0.00008651,0.00017102,0.00006739
 ,0.00005491,-0.00021750,-0.04749089,-0.05158978,-0.06201891,-0.0032188
 4,-0.00138592,-0.01284333,0.00045952,0.00023930,-0.00095977,-0.0002029
 1,0.00043572,0.00099606,-0.00016178,0.00003442,-0.00032420,-0.00089725
 ,-0.00032730,-0.01058296,0.15411503,-0.00750483,0.20645064,-0.00164902
 ,0.00012794,0.00035251,-0.01111897,0.02430115,-0.00560397,-0.00029427,
 -0.00292679,0.00278778,-0.00001593,0.00001002,-0.00050702,0.00008857,-
 0.00004636,-0.00045150,-0.10300219,0.10340519,-0.03582853,0.00088309,0
 .00165850,0.00007745,0.00170185,0.00002685,0.00039723,-0.00451575,-0.0
 0001461,-0.00207313,0.00038974,-0.00006996,-0.00070623,0.00000095,-0.0
 0124830,-0.00111947,0.00818551,-0.01349601,0.00410796,0.10823050,-0.00
 002865,-0.00011144,0.00003936,-0.00307516,0.00343436,-0.00119745,0.000
 15345,0.00050325,-0.00086827,-0.00000431,0.00000971,-0.00001170,-0.000
 01922,0.00000757,0.00000900,0.10148657,-0.26813964,0.05859911,-0.00020
 435,-0.00028734,-0.00001907,0.00029988,0.00127837,0.00007104,-0.000732
 31,0.00066281,-0.00004790,-0.00000805,0.00066122,0.00007477,-0.0000229
 6,0.00037934,0.00002164,0.01288439,-0.02154883,0.00828535,-0.10689170,
 0.28528609,-0.00013326,-0.00101708,0.00013172,-0.00143382,0.00328489,0
 .00142269,-0.00056106,0.00799199,-0.00718521,-0.00033687,-0.00004737,-
 0.00021014,0.00007541,0.00011398,0.00011948,-0.03568826,0.06949181,-0.
 04700732,-0.00141410,-0.00407656,-0.00003621,-0.00019095,-0.00052355,0
 .00127799,0.00063310,-0.00095615,-0.00085920,0.00067479,-0.00003335,0.
 00096200,-0.00025182,0.00280546,0.00195592,0.00310664,-0.01578857,0.00
 598970,0.03795290,-0.06276557,0.04587060,0.00206033,-0.00276222,0.0017
 4624,-0.00049859,-0.00000334,0.00028696,-0.01679354,0.00355874,0.00330
 700,-0.00051650,-0.00012852,0.00030425,0.00047979,0.00028140,-0.000150
 61,-0.00018615,0.00003193,0.00034990,-0.29846041,0.03527938,0.06521988
 ,0.00001651,0.00000579,0.00018927,-0.00000731,-0.00001953,0.00014544,0
 .00088894,-0.00031756,-0.00137588,-0.00877521,0.00097372,0.00246213,-0
 .00030814,-0.00026959,-0.00000176,-0.00000966,-0.00004548,0.00006652,0
 .31966071,-0.00015701,-0.00342770,0.00160073,-0.00018625,-0.00001311,0
 .00003624,-0.02832528,0.00451174,0.00525318,-0.00078913,-0.00009686,0.
 00022977,0.00015796,0.00012638,-0.00017153,-0.00012599,0.00055415,0.00
 077839,0.03539526,-0.06181848,-0.00844033,0.00007789,0.00002120,0.0001
 2523,0.00004861,-0.00000740,0.00017364,-0.00011929,0.00098626,-0.00059
 685,0.03186283,-0.00363243,-0.00570647,0.00009303,-0.00055470,-0.00000
 102,0.00006065,-0.00003495,-0.00005334,-0.03862611,0.06668864,0.001889
 66,0.00190521,0.00645049,-0.00124263,-0.00005487,0.00117467,0.01089237
 ,0.00057001,-0.00119838,0.00120365,-0.00017660,-0.00038187,0.00032831,
 0.00014188,-0.00012446,-0.00080365,0.00041385,0.00114399,0.05841931,-0
 .00947942,-0.05327709,-0.00009545,0.00004002,0.00025639,-0.00007443,-0
 .00005238,0.00019645,-0.00169299,0.00028997,-0.00382055,0.00580458,-0.
 00078650,0.00271844,-0.00067077,-0.00037353,0.00049763,0.00001705,-0.0
 0003025,-0.00019691,-0.07299806,0.00846811,0.04445081,0.00297522,0.000
 00740,-0.00136558,0.00170322,0.00069127,0.00218929,0.00074072,0.001277
 85,-0.00935381,0.00027285,0.00006049,0.00022945,0.00006337,0.00000532,
 -0.00008880,0.01629923,-0.00708032,0.01448849,-0.00147327,-0.00660954,
 0.00108687,0.00009955,0.00021377,-0.00021328,-0.00040212,-0.00125731,0
 .00032923,-0.00000377,-0.00000101,0.00026810,-0.00976170,0.00368095,0.
 00676560,-0.14577992,0.07889103,-0.03259379,-0.00013227,-0.00434929,-0
 .00387411,-0.00011994,-0.00017288,-0.00052523,0.62963173,-0.00403818,0
 .00077999,0.00224535,-0.00378315,-0.00012333,0.00063526,0.00136811,-0.
 01543931,0.02848204,-0.00064398,0.00011436,0.00002038,-0.00086209,-0.0
 0000682,-0.00030944,-0.00596670,-0.06222675,-0.03211973,0.00124843,0.0
 2376453,0.00040432,0.00028638,-0.00032958,0.00015436,-0.00050564,-0.00
 022018,0.00009385,-0.00114805,0.00012413,-0.00284122,0.00369469,-0.020
 47126,-0.02276455,0.10667697,-0.33114470,0.05232261,-0.00349718,-0.002
 16631,0.00115176,0.00032127,0.00032984,-0.00010254,-0.02056432,0.70425
 770,0.00365829,-0.00047434,-0.00174364,0.00442342,-0.00106005,-0.00195
 669,0.00639777,0.02148953,-0.03425232,0.00054270,-0.00005037,0.0000771
 9,0.00049716,0.00021015,0.00046937,0.01162454,0.01960247,0.03869795,-0
 .00567014,-0.05056521,-0.01045304,0.00058685,-0.00019707,-0.00023542,0
 .00117217,0.00038552,-0.00056050,0.00130204,0.00010864,0.00262757,-0.0
 0780109,0.02334151,0.04784170,-0.03697336,0.00152953,-0.05906536,-0.00
 116694,-0.00184124,0.00189580,-0.00025198,-0.00049703,0.00030304,0.105
 96138,0.02294664,0.09652370,-0.00050050,-0.00002649,-0.00033115,0.0020
 9587,-0.00253472,-0.00179797,-0.00021528,0.00000171,-0.00045630,0.0000
 0910,-0.00000558,-0.00019766,-0.00001409,-0.00000824,-0.00012722,-0.01
 555084,0.00285144,-0.00362412,-0.00034771,-0.00026046,-0.00001766,-0.0
 0043004,-0.00011113,-0.00030061,0.00047082,0.00028537,0.00012253,-0.00
 000248,-0.00004922,-0.00004853,-0.00014050,0.00033262,0.00011767,-0.30
 081560,0.03026678,-0.07281831,0.00076531,-0.00011633,0.00145006,0.0002
 4432,-0.00001602,0.00005043,-0.00838181,0.00097543,-0.00284280,0.32064
 503,-0.00013260,-0.00002750,0.00003909,-0.00024972,-0.00362924,-0.0011
 7065,-0.00005201,0.00047638,-0.00061617,0.00008062,0.00001029,-0.00012
 833,0.00003628,0.00000364,-0.00016940,-0.02907195,0.00382886,-0.006138
 92,0.00011766,-0.00044451,0.00004424,-0.00087794,-0.00009114,-0.000275
 44,0.00016025,0.00012082,0.00015252,0.00004988,-0.00002972,0.00003648,
 -0.00017816,0.00032204,0.00046187,0.03070540,-0.06070193,0.00874736,-0
 .00011673,0.00096905,0.00035015,-0.00001308,0.00009997,-0.00003400,0.0
 3161426,-0.00306431,0.00657013,-0.03302619,0.06575672,0.00126684,0.000
 13479,0.00116755,-0.00166454,-0.00145930,0.00642138,0.00077757,-0.0002
 5699,0.00091866,0.00010547,-0.00002750,0.00028477,0.00007851,0.0000276
 0,0.00017993,-0.00941961,-0.00046733,-0.00031286,0.00063683,0.00030961
 ,0.00047412,-0.00109967,0.00017088,-0.00034049,-0.00037547,-0.00018283
 ,-0.00014206,-0.00000670,0.00001600,-0.00017530,0.00054710,0.00001783,
 0.00025534,-0.06827723,0.00969569,-0.05907174,0.00175078,-0.00049235,-
 0.00372967,-0.00001167,-0.00000115,-0.00062269,-0.00678565,0.00081370,
 0.00285423,0.08171925,-0.00923452,0.04927223,0.00027123,-0.00137430,-0
 .00063597,0.00025704,0.00030703,-0.00013228,-0.00078303,-0.00105803,-0
 .00028384,0.00026055,-0.00034193,0.00016105,-0.00008102,-0.00085982,0.
 00022399,-0.00019066,0.00063507,0.00066294,-0.00652449,0.00120151,0.00
 118053,0.00003455,-0.00006028,-0.00009951,0.00001812,0.00010959,-0.000
 01614,0.00002593,0.00017257,-0.00026213,-0.32452698,0.06351305,0.03291
 104,0.00043007,-0.00077456,0.00015872,0.00003582,-0.00004826,-0.000070
 79,0.00121489,0.00126464,0.00077195,-0.00185815,0.00034096,-0.00020903
 ,0.00012833,-0.00011326,-0.00020566,0.34250734,0.00044163,-0.00101307,
 0.00086028,-0.00012471,0.00023762,0.00018594,-0.00010984,0.00083804,-0
 .00003891,-0.00011985,0.00035641,-0.00018059,-0.00144567,-0.00056973,-
 0.00022745,0.00019225,-0.00035556,-0.00038950,0.03054540,-0.00014172,-
 0.00264076,-0.00007212,0.00004809,-0.00008860,-0.00011703,-0.00002879,
 0.00015325,-0.00042600,0.00019708,-0.00048470,0.05943503,-0.07107974,-
 0.00517621,-0.00003689,0.00043168,0.00010069,-0.00007964,0.00001902,0.
 00002532,0.00154076,-0.00485628,-0.00061764,0.00030971,-0.00040924,0.0
 0011447,-0.00004608,-0.00003185,0.00003161,-0.06792962,0.06855465,0.00
 026205,0.00061556,-0.00080040,0.00079778,0.00030994,0.00020646,0.00007
 766,0.00372748,-0.00846397,0.00010291,0.00013298,0.00007576,-0.0002696
 2,-0.00046902,0.00045390,0.00106016,0.00374295,0.00438892,0.00622087,-
 0.01150015,0.00132839,0.00016179,-0.00007426,-0.00011957,0.00035969,-0
 .00010479,-0.00023471,0.00017188,-0.00024646,0.00025064,0.02493462,0.0
 0320559,-0.02230343,-0.00034256,-0.00662510,0.00043942,0.00025216,-0.0
 0008673,-0.00037128,0.00206808,-0.00173947,0.00689987,-0.00541065,0.00
 408410,-0.01154758,-0.00004905,-0.00023579,0.00021092,-0.03588123,0.00
 706551,0.03039433,-0.00026839,0.00011651,-0.00029431,0.00003283,-0.000
 05750,-0.00010359,0.00021532,0.00274464,0.00031433,0.00021264,-0.00030
 771,0.00013053,0.00057327,-0.00018760,0.00026323,-0.00017576,0.0007560
 8,0.00117482,0.00782247,0.00878628,-0.00306562,0.00005666,-0.00004447,
 0.00005087,0.00009394,0.00003339,-0.00009266,0.00035228,0.00053942,0.0
 0026218,-0.16281275,-0.13257682,0.04523515,0.00028199,-0.00121664,-0.0
 0012861,0.00007300,-0.00000979,-0.00007026,0.00099260,-0.00032341,-0.0
 0150218,-0.00011143,0.00174146,-0.00145390,-0.00000292,-0.00001183,-0.
 00002173,-0.01307677,-0.02164784,0.00636062,0.16530456,0.00065615,0.00
 004155,0.00004919,0.00002091,-0.00001797,-0.00004210,0.00321397,-0.003
 65374,-0.00190728,-0.00012074,0.00006894,-0.00002922,-0.00008877,0.000
 24873,-0.00008340,0.00014612,0.00010329,-0.00026565,-0.02050714,-0.018
 39286,0.00907812,-0.00001583,-0.00000070,0.00001145,-0.00002902,0.0000
 0847,0.00004704,-0.00079403,-0.00121724,0.00039960,-0.12992895,-0.2156
 0662,0.04625428,-0.00002909,0.00000165,0.00006624,-0.00001568,0.000010
 25,-0.00002317,0.00021047,0.00117673,-0.00011341,0.00034856,0.00008119
 ,-0.00029790,0.00003134,-0.00002198,-0.00001304,0.00506235,0.00692115,
 -0.00201796,0.14177129,0.22983711,0.00051801,-0.00041468,0.00029996,-0
 .00018179,-0.00006257,-0.00004490,0.00282560,0.00091646,0.00344588,0.0
 0000852,-0.00015269,0.00005583,0.00019284,0.00048020,0.00002692,-0.000
 33891,0.00100626,0.00143663,-0.00456696,-0.00947208,0.00401028,0.00006
 088,-0.00003504,0.00002145,0.00005369,0.00007472,0.00000063,0.00029996
 ,0.00009434,0.00035481,0.04693936,0.05514108,-0.04111703,0.00032941,-0
 .00145975,-0.00021077,0.00001602,-0.00000672,-0.00014781,-0.00147764,0
 .00035962,-0.00455658,0.00248767,0.00339405,-0.00248977,-0.00006395,0.
 00004249,-0.00007534,0.00075025,0.00158564,0.00047460,-0.04746636,-0.0
 5132668,0.03866056,0.00018589,0.00025937,0.00017250,0.00038252,-0.0014
 3456,0.00048643,-0.00028885,0.00046133,-0.00037621,0.00003207,-0.00007
 822,0.00009119,0.00002475,0.00013716,0.00003361,-0.00072339,-0.0011178
 4,0.00020677,0.00047690,-0.00040683,-0.00019902,0.00025476,-0.00032689
 ,-0.00013439,-0.00004661,-0.00069647,-0.00016907,0.00002792,-0.0000399
 5,0.00006363,-0.00172200,0.00021084,0.00014765,-0.00722895,0.00121012,
 -0.00157828,0.00000918,0.00017374,0.00024865,0.00012987,-0.00011562,0.
 00020230,-0.32703153,0.05638401,-0.03647805,0.00124561,0.00131916,-0.0
 0068608,0.00170489,-0.00018418,-0.00092183,0.00019912,0.00007816,0.000
 05719,0.34485636,-0.00015459,0.00013642,-0.00018442,0.00041810,-0.0010
 0185,-0.00088088,0.00016244,-0.00040729,0.00039559,-0.00007472,0.00006
 616,0.00007312,-0.00013744,-0.00003261,-0.00015875,-0.00012222,0.00079
 321,-0.00011373,0.00002069,0.00048722,-0.00014500,-0.00012734,0.000345
 03,0.00020648,-0.00134791,-0.00054616,0.00026972,-0.00008055,0.0000178
 5,-0.00002572,0.00030290,-0.00049817,-0.00028056,0.03069163,0.00063426
 ,0.00323399,-0.00041503,0.00022849,0.00046108,-0.00004484,-0.00002786,
 -0.00001906,0.05251199,-0.06858254,0.00545151,0.00135623,-0.00470463,0
 .00082312,-0.00014017,0.00081645,0.00026739,-0.00010730,0.00007381,0.0
 0003192,-0.06062876,0.06537471,-0.00060766,-0.00050939,0.00032980,-0.0
 0050832,-0.00044861,-0.00054942,-0.00092762,-0.00347760,0.00388038,-0.
 00019736,0.00007267,-0.00009688,-0.00036481,0.00014941,-0.00020619,0.0
 0006490,-0.00370613,-0.00850430,0.00031317,0.00600304,0.00046756,-0.00
 008653,-0.00012648,0.00007573,0.00030946,0.00047060,0.00038346,-0.0002
 5073,0.00004981,-0.00042870,0.00558661,-0.00389148,-0.01095451,-0.0071
 6107,0.01122119,0.00165223,-0.00011300,0.00021515,0.00013229,0.0000578
 4,0.00021982,0.00016633,-0.02822923,-0.00236190,-0.02536441,-0.0024074
 2,0.00198261,0.00694607,0.00109492,-0.00025020,-0.00075610,-0.00003697
 ,0.00003508,-0.00062534,0.03985573,-0.00762730,0.03233129,-0.00001724,
 -0.00002918,0.00010492,-0.00024978,0.00006241,0.00027741,-0.00019136,0
 .00079857,-0.00112768,0.00006387,-0.00005851,-0.00004599,0.00011422,0.
 00002933,0.00010786,0.00021206,0.00285769,-0.00070051,0.00028941,-0.00
 120934,0.00017332,0.00021556,-0.00028220,-0.00014129,0.00054792,-0.000
 13613,-0.00027125,0.00007879,-0.00000190,0.00008488,-0.00006580,0.0019
 2329,0.00150281,0.00841431,0.00912858,0.00292992,0.00037455,0.00055782
 ,-0.00018278,-0.00001251,-0.00000388,0.00002578,-0.15672997,-0.1320284
 2,-0.04331901,0.00079739,-0.00024004,0.00167165,0.00015234,-0.00012530
 ,0.00004469,0.00023735,-0.00001008,-0.00044382,-0.01248851,-0.02208311
 ,-0.00639192,0.15825740,0.00002049,-0.00003015,0.00003669,0.00062611,0
 .00005290,-0.00004894,0.00012809,0.00020649,0.00019891,-0.00001600,-0.
 00000035,-0.00001673,-0.00002554,0.00000975,-0.00004870,0.00314883,-0.
 00359157,0.00205139,0.00001672,-0.00009665,-0.00007265,-0.00011634,0.0
 0007209,0.00002411,-0.00007885,0.00022954,0.00006262,-0.00000478,0.000
 01092,0.00003981,0.00029927,0.00017907,0.00026963,-0.01951521,-0.01853
 820,-0.00870156,-0.00077231,-0.00116103,-0.00039171,0.00002681,-0.0000
 2515,0.00001115,-0.12957794,-0.22526741,-0.04676690,0.00009955,0.00115
 902,0.00009418,0.00009346,0.00006581,-0.00005177,0.00000184,0.00033825
 ,-0.00019658,0.00479544,0.00682750,0.00197971,0.14085038,0.23955915,0.
 00022436,0.00012239,-0.00007930,-0.00038467,0.00036569,0.00026717,0.00
 035021,-0.00092537,0.00092520,-0.00005786,0.00004271,0.00002466,-0.000
 08108,-0.00008706,-0.00000275,-0.00302765,-0.00012529,0.00400165,-0.00
 034711,0.00105704,-0.00017363,0.00001210,0.00012110,0.00006204,-0.0001
 6126,-0.00040738,0.00007241,-0.00001150,-0.00000575,-0.00014254,-0.002
 33239,-0.00333241,-0.00252791,0.00463399,0.00993327,0.00517214,-0.0001
 4205,0.00005182,-0.00001444,0.00006409,-0.00003752,-0.00007960,-0.0453
 6593,-0.05624902,-0.04362182,0.00162280,-0.00042373,-0.00451504,-0.000
 11881,-0.00002812,-0.00052617,0.00044446,0.00017879,0.00048001,-0.0010
 2273,-0.00177850,0.00112071,0.04570102,0.05152733,0.03955722\\0.000070
 96,0.00017702,-0.00000736,-0.00007501,-0.00025357,0.00000529,0.0000029
 6,0.00007948,-0.00000059,0.00000099,0.00000106,-0.00000055,-0.00000003
 ,-0.00000022,-0.00000092,0.00000353,0.00000478,0.00000117,-0.00000181,
 -0.00000453,-0.00000819,0.00000131,0.00000083,-0.00000038,-0.00000012,
 -0.00000010,0.00000169,-0.00000025,0.00000085,-0.00000066,0.00000054,0
 .00000145,0.00000718,-0.00000480,-0.00000713,0.00001207,0.00000052,0.0
 0000069,0.00000008,-0.00000057,0.00000062,0.00000115,0.00000431,-0.000
 00261,-0.00000749,-0.00000048,0.00000204,-0.00000125,0.00000059,-0.000
 00122,-0.00000266,-0.00000099,-0.00000030,-0.00000208,-0.00000068,0.00
 000112,0.00000159,-0.00000095,-0.00000024,0.00000193\\\@


 THE VALUE OF PHILOSOPHY IS, IN FACT, TO BE SOUGHT LARGELY IN ITS
 VERY UNCERTAINTY.  THE MAN WHO HAS NO TINCTURE OF PHILOSOPHY GOES
 THROUGH LIFE IMPRISONED IN THE PREJUDICES DERIVED FROM COMMON SENSE,
 FROM THE HABITUAL BELIEFS OF HIS AGE OR HIS NATION, AND FROM
 CONVICTIONS WHICH HAVE GROWN UP IN HIS MIND WITHOUT THE CO-OPERATION
 OR CONSENT OF HIS DELIBERATE REASON.  TO SUCH A MAN THE WORLD TENDS
 TO BE DEFINITE, FINITE, OBVIOUS; COMMON OBJECTS ROUSE NO QUESTIONS,
 AND UNFAMILIAR POSSIBILITIES ARE CONTEMPTUOUSLY REJECTED.

                             -- BERTRAND RUSSELL
 Job cpu time:       0 days  1 hours 51 minutes 32.1 seconds.
 Elapsed time:       0 days  0 hours  9 minutes 18.5 seconds.
 File lengths (MBytes):  RWF=    162 Int=      0 D2E=      0 Chk=     32 Scr=      1
 Normal termination of Gaussian 16 at Fri Jun 10 03:38:33 2022.
