 Entering Gaussian System, Link 0=g16
 Input=ts_zmat_field_N100.gjf
 Output=ts_zmat_field_N100.out
 Initial command:
 /software/gaussian/g16-a03/l1.exe "/local_scratch/11171405/Gau-7884.inp" -scrdir="/local_scratch/11171405/"
 Entering Link 1 = /software/gaussian/g16-a03/l1.exe PID=      7885.
  
 Copyright (c) 1988,1990,1992,1993,1995,1998,2003,2009,2016,
            Gaussian, Inc.  All Rights Reserved.
  
 This is part of the Gaussian(R) 16 program.  It is based on
 the Gaussian(R) 09 system (copyright 2009, Gaussian, Inc.),
 the Gaussian(R) 03 system (copyright 2003, Gaussian, Inc.),
 the Gaussian(R) 98 system (copyright 1998, Gaussian, Inc.),
 the Gaussian(R) 94 system (copyright 1995, Gaussian, Inc.),
 the Gaussian 92(TM) system (copyright 1992, Gaussian, Inc.),
 the Gaussian 90(TM) system (copyright 1990, Gaussian, Inc.),
 the Gaussian 88(TM) system (copyright 1988, Gaussian, Inc.),
 the Gaussian 86(TM) system (copyright 1986, Carnegie Mellon
 University), and the Gaussian 82(TM) system (copyright 1983,
 Carnegie Mellon University). Gaussian is a federally registered
 trademark of Gaussian, Inc.
  
 This software contains proprietary and confidential information,
 including trade secrets, belonging to Gaussian, Inc.
  
 This software is provided under written license and may be
 used, copied, transmitted, or stored only in accord with that
 written license.
  
 The following legend is applicable only to US Government
 contracts under FAR:
  
                    RESTRICTED RIGHTS LEGEND
  
 Use, reproduction and disclosure by the US Government is
 subject to restrictions as set forth in subparagraphs (a)
 and (c) of the Commercial Computer Software - Restricted
 Rights clause in FAR 52.227-19.
  
 Gaussian, Inc.
 340 Quinnipiac St., Bldg. 40, Wallingford CT 06492
  
  
 ---------------------------------------------------------------
 Warning -- This program may not be used in any manner that
 competes with the business of Gaussian, Inc. or will provide
 assistance to any competitor of Gaussian, Inc.  The licensee
 of this program is prohibited from giving any competitor of
 Gaussian, Inc. access to this program.  By using this program,
 the user acknowledges that Gaussian, Inc. is engaged in the
 business of creating and licensing software in the field of
 computational chemistry and represents and warrants to the
 licensee that it is not a competitor of Gaussian, Inc. and that
 it will not use this program in any manner prohibited above.
 ---------------------------------------------------------------
  

 Cite this work as:
 Gaussian 16, Revision A.03,
 M. J. Frisch, G. W. Trucks, H. B. Schlegel, G. E. Scuseria, 
 M. A. Robb, J. R. Cheeseman, G. Scalmani, V. Barone, 
 G. A. Petersson, H. Nakatsuji, X. Li, M. Caricato, A. V. Marenich, 
 J. Bloino, B. G. Janesko, R. Gomperts, B. Mennucci, H. P. Hratchian, 
 J. V. Ortiz, A. F. Izmaylov, J. L. Sonnenberg, D. Williams-Young, 
 F. Ding, F. Lipparini, F. Egidi, J. Goings, B. Peng, A. Petrone, 
 T. Henderson, D. Ranasinghe, V. G. Zakrzewski, J. Gao, N. Rega, 
 G. Zheng, W. Liang, M. Hada, M. Ehara, K. Toyota, R. Fukuda, 
 J. Hasegawa, M. Ishida, T. Nakajima, Y. Honda, O. Kitao, H. Nakai, 
 T. Vreven, K. Throssell, J. A. Montgomery, Jr., J. E. Peralta, 
 F. Ogliaro, M. J. Bearpark, J. J. Heyd, E. N. Brothers, K. N. Kudin, 
 V. N. Staroverov, T. A. Keith, R. Kobayashi, J. Normand, 
 K. Raghavachari, A. P. Rendell, J. C. Burant, S. S. Iyengar, 
 J. Tomasi, M. Cossi, J. M. Millam, M. Klene, C. Adamo, R. Cammi, 
 J. W. Ochterski, R. L. Martin, K. Morokuma, O. Farkas, 
 J. B. Foresman, and D. J. Fox, Gaussian, Inc., Wallingford CT, 2016.
 
 ******************************************
 Gaussian 16:  ES64L-G16RevA.03 25-Dec-2016
                10-Jun-2022 
 ******************************************
 %nprocshared=12
 Will use up to   12 processors via shared memory.
 %chk=checkpoint.chk
 %mem=12GB
 ----------------------------------------------------------------------
 # Opt=(TS, CalcFC, noeigentest, Z-matrix, MaxStep=10) geom=allcheckpoi
 nt guess=read Field=read NoSymm B3LYP/Def2TZVP freq=noraman pop=none
 ----------------------------------------------------------------------
 1/5=1,8=10,10=4,11=1,18=40,26=3,29=7,38=1/1,3;
 2/12=2,15=1,29=3,40=1/2;
 3/5=44,7=101,11=2,14=-6,25=1,30=1,71=2,74=-5,116=-2,140=1/1,2,3;
 4/5=1/1;
 5/5=2,38=6/2;
 8/6=4,10=90,11=11/1;
 11/6=1,8=1,9=11,15=111,16=1,31=1/1,2,10;
 10/6=1,13=1,31=1/2;
 7/10=1,18=20,25=1,30=1/1,2,3,16;
 1/5=1,8=10,10=4,11=1,18=40,26=3/3(2);
 2/15=1,29=3/2;
 99//99;
 2/15=1,29=3/2;
 3/5=44,7=101,11=2,14=-2,25=1,30=1,71=1,74=-5/1,2,3;
 4/5=5,16=3,69=1/1;
 5/5=2,38=5/2;
 7/30=1/1,2,3,16;
 1/5=1,8=10,11=1,18=40,26=3/3(-5);
 2/15=1,29=3/2;
 99/9=1/99;
 Structure from the checkpoint file:  "checkpoint.chk"
 -----------------
 ts_zmat_initalOpt
 -----------------
 Charge =  0 Multiplicity = 1
 Z-Matrix found in chk file.
 C
 C,1,R2
 C,1,R3,2,A3
 H,1,R4,2,A4,3,D4,0
 H,1,R5,2,A5,3,D5,0
 C,2,R6,1,A6,3,D6,0
 C,3,R7,1,A7,2,D7,0
 H,2,R8,1,A8,6,D8,0
 H,2,R9,1,A9,6,D9,0
 H,3,R10,1,A10,7,D10,0
 C,7,R11,3,A11,1,D11,0
 C,6,R12,2,A12,1,D12,0
 H,6,R13,2,A13,12,D13,0
 H,7,R14,3,A14,11,D14,0
 C,12,R15,6,A15,2,D15,0
 H,12,R16,6,A16,15,D16,0
 H,11,R17,7,A17,3,D17,0
 H,11,R18,7,A18,17,D18,0
 H,15,R19,12,A19,6,D19,0
 H,15,R20,12,A20,19,D20,0
      Variables:
 R2=1.5394125
 R3=1.52386151
 R4=1.09207414
 R5=1.09205805
 R6=1.52306312
 R7=1.39143954
 R8=1.09003367
 R9=1.090836
 R10=1.08410127
 R11=1.37973678
 R12=1.39062559
 R13=1.08348035
 R14=1.08789792
 R15=1.37528861
 R16=1.08593118
 R17=1.07972344
 R18=1.08243046
 R19=1.08010167
 R20=1.08156872
 A3=102.58331911
 A4=112.54439066
 A5=112.48926104
 A6=102.31313745
 A7=123.90299555
 A8=112.55511545
 A9=113.09523212
 A10=116.49509958
 A11=124.99973837
 A12=124.27442768
 A13=116.38066752
 A14=116.05505754
 A15=124.65336839
 A16=116.55480294
 A17=121.4434119
 A18=120.12694081
 A19=121.11992495
 A20=120.1037012
 D4=119.39822294
 D5=-119.90038866
 D6=2.46292903
 D7=-101.83834596
 D8=-118.45695891
 D9=120.55753617
 D10=-162.337524
 D11=18.62296914
 D12=97.68876699
 D13=161.52642606
 D14=163.67238203
 D15=-18.03186495
 D16=-167.13294438
 D17=-26.31553461
 D18=-160.23748972
 D19=24.3774335
 D20=158.92538967
 Recover connectivity data from disk.

 GradGradGradGradGradGradGradGradGradGradGradGradGradGradGradGradGradGrad
 Berny optimization.
 Initialization pass.
                       ----------------------------
                       !    Initial Parameters    !
                       ! (Angstroms and Degrees)  !
 ----------------------                            ----------------------
 !      Name          Value   Derivative information (Atomic Units)     !
 ------------------------------------------------------------------------
 !       R2          1.5394   calculate D2E/DX2 analytically            !
 !       R3          1.5239   calculate D2E/DX2 analytically            !
 !       R4          1.0921   calculate D2E/DX2 analytically            !
 !       R5          1.0921   calculate D2E/DX2 analytically            !
 !       R6          1.5231   calculate D2E/DX2 analytically            !
 !       R7          1.3914   calculate D2E/DX2 analytically            !
 !       R8          1.09     calculate D2E/DX2 analytically            !
 !       R9          1.0908   calculate D2E/DX2 analytically            !
 !       R10         1.0841   calculate D2E/DX2 analytically            !
 !       R11         1.3797   calculate D2E/DX2 analytically            !
 !       R12         1.3906   calculate D2E/DX2 analytically            !
 !       R13         1.0835   calculate D2E/DX2 analytically            !
 !       R14         1.0879   calculate D2E/DX2 analytically            !
 !       R15         1.3753   calculate D2E/DX2 analytically            !
 !       R16         1.0859   calculate D2E/DX2 analytically            !
 !       R17         1.0797   calculate D2E/DX2 analytically            !
 !       R18         1.0824   calculate D2E/DX2 analytically            !
 !       R19         1.0801   calculate D2E/DX2 analytically            !
 !       R20         1.0816   calculate D2E/DX2 analytically            !
 !       A3        102.5833   calculate D2E/DX2 analytically            !
 !       A4        112.5444   calculate D2E/DX2 analytically            !
 !       A5        112.4893   calculate D2E/DX2 analytically            !
 !       A6        102.3131   calculate D2E/DX2 analytically            !
 !       A7        123.903    calculate D2E/DX2 analytically            !
 !       A8        112.5551   calculate D2E/DX2 analytically            !
 !       A9        113.0952   calculate D2E/DX2 analytically            !
 !       A10       116.4951   calculate D2E/DX2 analytically            !
 !       A11       124.9997   calculate D2E/DX2 analytically            !
 !       A12       124.2744   calculate D2E/DX2 analytically            !
 !       A13       116.3807   calculate D2E/DX2 analytically            !
 !       A14       116.0551   calculate D2E/DX2 analytically            !
 !       A15       124.6534   calculate D2E/DX2 analytically            !
 !       A16       116.5548   calculate D2E/DX2 analytically            !
 !       A17       121.4434   calculate D2E/DX2 analytically            !
 !       A18       120.1269   calculate D2E/DX2 analytically            !
 !       A19       121.1199   calculate D2E/DX2 analytically            !
 !       A20       120.1037   calculate D2E/DX2 analytically            !
 !       D4        119.3982   calculate D2E/DX2 analytically            !
 !       D5       -119.9004   calculate D2E/DX2 analytically            !
 !       D6          2.4629   calculate D2E/DX2 analytically            !
 !       D7       -101.8383   calculate D2E/DX2 analytically            !
 !       D8       -118.457    calculate D2E/DX2 analytically            !
 !       D9        120.5575   calculate D2E/DX2 analytically            !
 !       D10      -162.3375   calculate D2E/DX2 analytically            !
 !       D11        18.623    calculate D2E/DX2 analytically            !
 !       D12        97.6888   calculate D2E/DX2 analytically            !
 !       D13       161.5264   calculate D2E/DX2 analytically            !
 !       D14       163.6724   calculate D2E/DX2 analytically            !
 !       D15       -18.0319   calculate D2E/DX2 analytically            !
 !       D16      -167.1329   calculate D2E/DX2 analytically            !
 !       D17       -26.3155   calculate D2E/DX2 analytically            !
 !       D18      -160.2375   calculate D2E/DX2 analytically            !
 !       D19        24.3774   calculate D2E/DX2 analytically            !
 !       D20       158.9254   calculate D2E/DX2 analytically            !
 ------------------------------------------------------------------------
 Trust Radius=1.00D-01 FncErr=1.00D-07 GrdErr=1.00D-06 EigMax=2.50D+02 EigMin=1.00D-04
 Number of steps in this run=     64 maximum allowed number of steps=    108.
 Search for a saddle point of order  1.
 GradGradGradGradGradGradGradGradGradGradGradGradGradGradGradGradGradGrad

 ---------------------------------------------------------------------------------------------------
                            Z-MATRIX (ANGSTROMS AND DEGREES)
   CD    Cent   Atom    N1       Length/X        N2       Alpha/Y        N3        Beta/Z          J
 ---------------------------------------------------------------------------------------------------
      1      1  C 
      2      2  C        1   1.539412(     1)
      3      3  C        1   1.523862(     2)      2  102.583(    20)
      4      4  H        1   1.092074(     3)      2  112.544(    21)      3  119.398(    38)      0
      5      5  H        1   1.092058(     4)      2  112.489(    22)      3 -119.900(    39)      0
      6      6  C        2   1.523063(     5)      1  102.313(    23)      3    2.463(    40)      0
      7      7  C        3   1.391440(     6)      1  123.903(    24)      2 -101.838(    41)      0
      8      8  H        2   1.090034(     7)      1  112.555(    25)      6 -118.457(    42)      0
      9      9  H        2   1.090836(     8)      1  113.095(    26)      6  120.558(    43)      0
     10     10  H        3   1.084101(     9)      1  116.495(    27)      7 -162.338(    44)      0
     11     11  C        7   1.379737(    10)      3  125.000(    28)      1   18.623(    45)      0
     12     12  C        6   1.390626(    11)      2  124.274(    29)      1   97.689(    46)      0
     13     13  H        6   1.083480(    12)      2  116.381(    30)     12  161.526(    47)      0
     14     14  H        7   1.087898(    13)      3  116.055(    31)     11  163.672(    48)      0
     15     15  C       12   1.375289(    14)      6  124.653(    32)      2  -18.032(    49)      0
     16     16  H       12   1.085931(    15)      6  116.555(    33)     15 -167.133(    50)      0
     17     17  H       11   1.079723(    16)      7  121.443(    34)      3  -26.316(    51)      0
     18     18  H       11   1.082430(    17)      7  120.127(    35)     17 -160.237(    52)      0
     19     19  H       15   1.080102(    18)     12  121.120(    36)      6   24.377(    53)      0
     20     20  H       15   1.081569(    19)     12  120.104(    37)     19  158.925(    54)      0
 ---------------------------------------------------------------------------------------------------
                         Z-Matrix orientation:                         
 ---------------------------------------------------------------------
 Center     Atomic      Atomic             Coordinates (Angstroms)
 Number     Number       Type             X           Y           Z
 ---------------------------------------------------------------------
      1          6           0        0.000000    0.000000    0.000000
      2          6           0        0.000000    0.000000    1.539412
      3          6           0        1.487259    0.000000   -0.331987
      4          1           0       -0.495109   -0.878740   -0.418700
      5          1           0       -0.502984    0.874703   -0.417723
      6          6           0        1.486653    0.063945    1.864212
      7          6           0        2.193129    1.130308   -0.732306
      8          1           0       -0.441196   -0.904824    1.957519
      9          1           0       -0.546797    0.841335    1.967304
     10          1           0        1.937833   -0.965233   -0.533443
     11          6           0        1.777256    2.431919   -0.541177
     12          6           0        2.169378    1.233175    2.181430
     13          1           0        1.958848   -0.870130    2.144329
     14          1           0        3.242590    0.977319   -0.974688
     15          6           0        1.714459    2.502424    1.910366
     16          1           0        3.208813    1.123687    2.476103
     17          1           0        0.730463    2.681669   -0.453702
     18          1           0        2.435874    3.254560   -0.788442
     19          1           0        0.660023    2.703936    1.791293
     20          1           0        2.330766    3.360551    2.141829
 ---------------------------------------------------------------------
                    Distance matrix (angstroms):
                    1          2          3          4          5
     1  C    0.000000
     2  C    1.539412   0.000000
     3  C    1.523862   2.390413   0.000000
     4  H    1.092074   2.202617   2.170134   0.000000
     5  H    1.092058   2.201926   2.175666   1.753460   0.000000
     6  C    2.385270   1.523063   2.197130   3.166658   3.134201
     7  C    2.573652   3.353821   1.391440   3.370644   2.726412
     8  H    2.201191   1.090034   3.127216   2.376974   2.968553
     9  H    2.208420   1.090836   3.183075   2.941827   2.385664
    10  H    2.229671   2.997266   1.084101   2.437181   3.058814
    11  C    3.060350   3.660837   2.458066   4.017351   2.763994
    12  C    3.314447   2.576646   2.881540   4.280228   3.745079
    13  H    3.031890   2.227136   2.666771   3.548393   3.958430
    14  H    3.524139   4.217848   2.109361   4.210043   3.788148
    15  C    3.584828   3.055994   3.367773   4.662511   3.603683
    16  H    4.205977   3.526548   3.480200   5.109661   4.713138
    17  H    2.816162   3.420151   2.789068   3.765602   2.188107
    18  H    4.140928   4.684501   3.420583   5.080506   3.799743
    19  H    3.309929   2.794699   3.536087   4.365085   3.094905
    20  H    4.616622   4.133845   4.257296   5.702058   4.556412
                    6          7          8          9         10
     6  C    0.000000
     7  C    2.894503   0.000000
     8  H    2.159588   4.279788   0.000000
     9  H    2.179422   3.857279   1.749377   0.000000
    10  H    2.647928   2.120380   3.445043   3.961163   0.000000
    11  C    3.387868   1.379737   4.722168   3.771427   3.400954
    12  C    1.390626   2.915648   3.381756   2.752634   3.501021
    13  H    1.083480   3.511648   2.407553   3.039524   2.679543
    14  H    3.460769   1.087898   5.070560   4.799298   2.381301
    15  C    2.449532   3.015882   4.032172   2.806374   4.248146
    16  H    2.112652   3.365345   4.207891   3.800422   3.877673
    17  H    3.577294   2.150287   4.477690   3.298408   3.842394
    18  H    4.256480   2.138814   5.754851   4.723783   4.256727
    19  H    2.767343   3.345934   3.776700   2.226359   4.527692
    20  H    3.414265   3.640547   5.090301   3.828482   5.101361
                   11         12         13         14         15
    11  C    0.000000
    12  C    3.000556   0.000000
    13  H    4.260100   2.114141   0.000000
    14  H    2.109739   3.343401   3.845690   0.000000
    15  C    2.453361   1.375289   3.389482   3.603425   0.000000
    16  H    3.586755   1.085931   2.376509   3.454060   2.110467
    17  H    1.079723   3.333546   4.568804   3.080100   2.566943
    18  H    1.082430   3.602382   5.083480   2.423078   2.893046
    19  H    2.600504   2.143244   3.819100   4.159509   1.080102
    20  H    2.892621   2.133856   4.246998   4.027890   1.081569
                   16         17         18         19         20
    16  H    0.000000
    17  H    4.141653   0.000000
    18  H    3.974332   1.829941   0.000000
    19  H    3.076115   2.246211   3.179917   0.000000
    20  H    2.426163   3.123881   2.934071   1.829043   0.000000
 Symmetry turned off by external request.
 Stoichiometry    C8H12
 Framework group  C1[X(C8H12)]
 Deg. of freedom    54
 Full point group                 C1      NOp   1
 Rotational constants (GHZ):           2.4841000           2.3067640           1.5781561
 Standard basis: def2TZVP (5D, 7F)
 The following finite field(s) will be applied:
 An electric field of              0.0026  0.0024 -0.0094
   320 basis functions,   504 primitive gaussians,   360 cartesian basis functions
    30 alpha electrons       30 beta electrons
       nuclear repulsion energy       367.9055828913 Hartrees.
 NAtoms=   20 NActive=   20 NUniq=   20 SFac= 1.00D+00 NAtFMM=   60 NAOKFM=F Big=F
 Integral buffers will be    131072 words long.
 Raffenetti 2 integral format.
 Two-electron integral symmetry is turned off.
 One-electron integrals computed using PRISM.
   1 Symmetry operations used in ECPInt.
 ECPInt:  NShTT=    9316 NPrTT=   27240 LenC2=    9238 LenP2D=   22125.
 LDataN:  DoStor=T MaxTD1= 6 Len=  172
 NBasis=   320 RedAO= T EigKep=  2.64D-05  NBF=   320
 NBsUse=   320 1.00D-06 EigRej= -1.00D+00 NBFU=   320
 The nuclear repulsion energy is now       367.7642364817 hartrees.
 Initial guess from the checkpoint file:  "checkpoint.chk"
 B after Tr=     0.000000    0.000000    0.000000
         Rot=    1.000000   -0.000000    0.000000    0.000000 Ang=   0.00 deg.
 Requested convergence on RMS density matrix=1.00D-08 within 128 cycles.
 Requested convergence on MAX density matrix=1.00D-06.
 Requested convergence on             energy=1.00D-06.
 No special actions if energy rises.
 SCF Done:  E(RB3LYP) =  -312.086167456     A.U. after   10 cycles
            NFock= 10  Conv=0.71D-08     -V/T= 2.0056
 DoSCS=F DFT=T ScalE2(SS,OS)=  1.000000  1.000000
 Range of M.O.s used for correlation:     1   320
 NBasis=   320 NAE=    30 NBE=    30 NFC=     0 NFV=     0
 NROrb=    320 NOA=    30 NOB=    30 NVA=   290 NVB=   290

 **** Warning!!: The largest alpha MO coefficient is  0.34915684D+02

   1 Symmetry operations used in ECPInt.
 ECPInt:  NShTT=    9316 NPrTT=   27240 LenC2=    9238 LenP2D=   22125.
 LDataN:  DoStor=T MaxTD1= 7 Len=  274
 Symmetrizing basis deriv contribution to polar:
 IMax=3 JMax=2 DiffMx= 0.00D+00
 G2DrvN: will do    21 centers at a time, making    1 passes.
 Calling FoFCou, ICntrl=  3107 FMM=F I1Cent=   0 AccDes= 0.00D+00.
 End of G2Drv F.D. properties file   721 does not exist.
 End of G2Drv F.D. properties file   722 does not exist.
 End of G2Drv F.D. properties file   788 does not exist.
          IDoAtm=11111111111111111111
          Differentiating once with respect to nuclear coordinates.
 Keep R1 ints in memory in canonical form, NReq=1342482924.
          There are    63 degrees of freedom in the 1st order CPHF.  IDoFFX=6 NUNeed=     0.
     57 vectors produced by pass  0 Test12= 1.38D-14 1.59D-09 XBig12= 9.31D-02 1.25D-01.
 AX will form    57 AO Fock derivatives at one time.
     57 vectors produced by pass  1 Test12= 1.38D-14 1.59D-09 XBig12= 1.92D-02 5.41D-02.
     57 vectors produced by pass  2 Test12= 1.38D-14 1.59D-09 XBig12= 1.96D-04 2.25D-03.
     57 vectors produced by pass  3 Test12= 1.38D-14 1.59D-09 XBig12= 8.36D-07 8.59D-05.
     57 vectors produced by pass  4 Test12= 1.38D-14 1.59D-09 XBig12= 1.81D-09 5.77D-06.
     49 vectors produced by pass  5 Test12= 1.38D-14 1.59D-09 XBig12= 3.14D-12 1.78D-07.
      9 vectors produced by pass  6 Test12= 1.38D-14 1.59D-09 XBig12= 3.94D-15 5.41D-09.
 InvSVY:  IOpt=1 It=  1 EMax= 5.55D-16
 Solved reduced A of dimension   343 with    63 vectors.
 End of Minotr F.D. properties file   721 does not exist.
 End of Minotr F.D. properties file   722 does not exist.
 End of Minotr F.D. properties file   788 does not exist.
   1 Symmetry operations used in ECPInt.
 ECPInt:  NShTT=    9316 NPrTT=   27240 LenC2=    9238 LenP2D=   22125.
 LDataN:  DoStor=T MaxTD1= 8 Len=  415
 Calling FoFJK, ICntrl=    100147 FMM=F ISym2X=0 I1Cent= 0 IOpClX= 0 NMat=1 NMatS=1 NMatT=0.
 -------------------------------------------------------------------
 Center     Atomic                   Forces (Hartrees/Bohr)
 Number     Number              X              Y              Z
 -------------------------------------------------------------------
      1        6           0.000252041   -0.000422355    0.000108094
      2        6          -0.000275389    0.000390159    0.000285995
      3        6           0.000250208   -0.000217684   -0.000404059
      4        1          -0.000042281   -0.000098411    0.000103812
      5        1          -0.000067144    0.000182711   -0.000010086
      6        6          -0.000571051    0.000087991    0.000220683
      7        6          -0.000469098   -0.000581195   -0.000776595
      8        1           0.000113586    0.000232221    0.000053501
      9        1           0.000066205   -0.000224984    0.000022866
     10        1           0.000073058   -0.000114315    0.000126957
     11        6          -0.000079853    0.000624646   -0.000274218
     12        6           0.000570630    0.000293317   -0.000647064
     13        1          -0.000017424    0.000058986    0.000019847
     14        1           0.000370748   -0.000049301    0.000222029
     15        6          -0.000231625   -0.000329606    0.000148820
     16        1          -0.000146869   -0.000011310    0.000275158
     17        1           0.000016100    0.000024324    0.000145060
     18        1           0.000197943    0.000234563    0.000041596
     19        1           0.000010258   -0.000030305    0.000164807
     20        1          -0.000020045   -0.000049451    0.000172798
 -------------------------------------------------------------------
 Cartesian Forces:  Max     0.000776595 RMS     0.000275566
 -----------------------------------------------------------------------------------------------
                       Internal Coordinate Forces (Hartree/Bohr or radian)
  Cent   Atom   N1       Length/X         N2         Alpha/Y        N3         Beta/Z          J
 -----------------------------------------------------------------------------------------------
      1  C 
      2  C        1   0.000717(     1)
      3  C        1   0.000551(     2)      2   0.002567(    20)
      4  H        1   0.000059(     3)      2  -0.000282(    21)      3  -0.000022(    38)     0
      5  H        1   0.000181(     4)      2  -0.000132(    22)      3   0.000063(    39)     0
      6  C        2  -0.000320(     5)      1   0.001342(    23)      3   0.000596(    40)     0
      7  C        3   0.000408(     6)      1   0.001051(    24)      2  -0.001622(    41)     0
      8  H        2  -0.000218(     7)      1   0.000306(    25)      6   0.000001(    42)     0
      9  H        2  -0.000198(     8)      1   0.000225(    26)      6   0.000127(    43)     0
     10  H        3   0.000109(     9)      1  -0.000011(    27)      7  -0.000276(    44)     0
     11  C        7   0.000781(    10)      3   0.001104(    28)      1  -0.000276(    45)     0
     12  C        6   0.000009(    11)      2  -0.000005(    29)      1   0.001567(    46)     0
     13  H        6  -0.000053(    12)      2   0.000031(    30)     12  -0.000061(    47)     0
     14  H        7   0.000315(    13)      3  -0.000124(    31)     11  -0.000542(    48)     0
     15  C       12  -0.000394(    14)      6  -0.000271(    32)      2   0.000858(    49)     0
     16  H       12  -0.000065(    15)      6   0.000023(    33)     15  -0.000560(    50)     0
     17  H       11   0.000002(    16)      7   0.000089(    34)      3   0.000055(    51)     0
     18  H       11   0.000289(    17)      7   0.000053(    35)     17  -0.000191(    52)     0
     19  H       15  -0.000034(    18)     12  -0.000111(    36)      6  -0.000017(    53)     0
     20  H       15  -0.000014(    19)     12  -0.000156(    37)     19  -0.000289(    54)     0
 -----------------------------------------------------------------------------------------------
 Internal  Forces:  Max     0.002566596 RMS     0.000613970

 GradGradGradGradGradGradGradGradGradGradGradGradGradGradGradGradGradGrad
 Berny optimization.
 Search for a saddle point.
 Step number   1 out of a maximum of   64
 All quantities printed in internal units (Hartrees-Bohrs-Radians)
 Swapping is turned off.
 Second derivative matrix not updated -- analytic derivatives used.
 ITU=  0
     Eigenvalues ---   -0.13083   0.00326   0.01384   0.02210   0.03489
     Eigenvalues ---    0.05902   0.06146   0.07128   0.07364   0.11461
     Eigenvalues ---    0.11714   0.11919   0.13705   0.14043   0.14385
     Eigenvalues ---    0.14584   0.16781   0.16976   0.17329   0.18562
     Eigenvalues ---    0.20150   0.22206   0.23239   0.24288   0.25284
     Eigenvalues ---    0.27302   0.28646   0.28896   0.29565   0.31217
     Eigenvalues ---    0.32648   0.32974   0.33319   0.33428   0.34205
     Eigenvalues ---    0.34964   0.35086   0.35417   0.35492   0.35773
     Eigenvalues ---    0.35928   0.36662   0.36901   0.38249   0.41795
     Eigenvalues ---    0.43219   0.44225   0.46819   0.50297   0.53395
     Eigenvalues ---    0.56828   0.75387   1.22243   2.33988
 Eigenvectors required to have negative eigenvalues:
                          D7        D12       D19       D17       D10
   1                    0.45243  -0.44414   0.24772  -0.24762  -0.22890
                          A3        A6        D13       R12       D18
   1                    0.22678   0.22548   0.22540  -0.20156   0.19840
 RFO step:  Lambda0=1.699427308D-06 Lambda=-5.11648478D-05.
 Linear search not attempted -- option 19 set.
 Variable       Old X    -DE/DX   Delta X   Delta X   Delta X     New X
                                 (Linear)    (Quad)   (Total)
    R2        2.90907   0.00072   0.00000   0.00014   0.00014   2.90921
    R3        2.87968   0.00055   0.00000  -0.00063  -0.00063   2.87905
    R4        2.06372   0.00006   0.00000   0.00050   0.00050   2.06422
    R5        2.06369   0.00018   0.00000  -0.00011  -0.00011   2.06358
    R6        2.87817  -0.00032   0.00000  -0.00023  -0.00023   2.87794
    R7        2.62944   0.00041   0.00000  -0.00073  -0.00073   2.62871
    R8        2.05987  -0.00022   0.00000  -0.00082  -0.00082   2.05905
    R9        2.06138  -0.00020   0.00000  -0.00004  -0.00004   2.06134
   R10        2.04865   0.00011   0.00000   0.00009   0.00009   2.04874
   R11        2.60732   0.00078   0.00000   0.00280   0.00280   2.61012
   R12        2.62790   0.00001   0.00000  -0.00051  -0.00051   2.62739
   R13        2.04748  -0.00005   0.00000  -0.00013  -0.00013   2.04735
   R14        2.05583   0.00032   0.00000   0.00096   0.00096   2.05679
   R15        2.59892  -0.00039   0.00000  -0.00108  -0.00108   2.59784
   R16        2.05211  -0.00006   0.00000  -0.00034  -0.00034   2.05178
   R17        2.04038   0.00000   0.00000  -0.00035  -0.00035   2.04003
   R18        2.04550   0.00029   0.00000   0.00084   0.00084   2.04634
   R19        2.04110  -0.00003   0.00000   0.00030   0.00030   2.04140
   R20        2.04387  -0.00001   0.00000  -0.00008  -0.00008   2.04379
    A3        1.79042   0.00257   0.00000   0.00167   0.00167   1.79209
    A4        1.96427  -0.00028   0.00000   0.00105   0.00105   1.96532
    A5        1.96331  -0.00013   0.00000  -0.00362  -0.00362   1.95969
    A6        1.78570   0.00134   0.00000   0.00268   0.00268   1.78838
    A7        2.16252   0.00105   0.00000   0.00000   0.00000   2.16252
    A8        1.96446   0.00031   0.00000  -0.00263  -0.00263   1.96182
    A9        1.97388   0.00023   0.00000   0.00294   0.00294   1.97682
   A10        2.03322  -0.00001   0.00000   0.00034   0.00034   2.03357
   A11        2.18166   0.00110   0.00000   0.00187   0.00187   2.18353
   A12        2.16900  -0.00000   0.00000   0.00339   0.00339   2.17239
   A13        2.03123   0.00003   0.00000  -0.00037  -0.00037   2.03086
   A14        2.02554  -0.00012   0.00000  -0.00165  -0.00165   2.02389
   A15        2.17561  -0.00027   0.00000  -0.00009  -0.00009   2.17552
   A16        2.03427   0.00002   0.00000   0.00097   0.00097   2.03523
   A17        2.11959   0.00009   0.00000   0.00206   0.00206   2.12165
   A18        2.09661   0.00005   0.00000  -0.00086  -0.00086   2.09575
   A19        2.11394  -0.00011   0.00000  -0.00173  -0.00173   2.11221
   A20        2.09621  -0.00016   0.00000   0.00055   0.00055   2.09676
    D4        2.08389  -0.00002   0.00000   0.00590   0.00590   2.08979
    D5       -2.09266   0.00006   0.00000   0.00403   0.00403  -2.08863
    D6        0.04299   0.00060   0.00000   0.04188   0.04188   0.08486
    D7       -1.77741  -0.00162   0.00000  -0.02993  -0.02993  -1.80734
    D8       -2.06746   0.00000   0.00000   0.00510   0.00510  -2.06236
    D9        2.10413   0.00013   0.00000   0.00562   0.00562   2.10975
   D10       -2.83332  -0.00028   0.00000  -0.01291  -0.01291  -2.84624
   D11        0.32503  -0.00028   0.00000  -0.01070  -0.01070   0.31433
   D12        1.70499   0.00157   0.00000  -0.03790  -0.03790   1.66709
   D13        2.81917  -0.00006   0.00000   0.00321   0.00321   2.82238
   D14        2.85662  -0.00054   0.00000  -0.00570  -0.00570   2.85092
   D15       -0.31472   0.00086   0.00000   0.00319   0.00319  -0.31152
   D16       -2.91702  -0.00056   0.00000  -0.01388  -0.01388  -2.93090
   D17       -0.45929   0.00006   0.00000  -0.00511  -0.00511  -0.46440
   D18       -2.79667  -0.00019   0.00000  -0.00620  -0.00620  -2.80288
   D19        0.42547  -0.00002   0.00000  -0.01547  -0.01547   0.41000
   D20        2.77377  -0.00029   0.00000  -0.00024  -0.00024   2.77353
         Item               Value     Threshold  Converged?
 Maximum Force            0.002567     0.000450     NO 
 RMS     Force            0.000614     0.000300     NO 
 Maximum Displacement     0.041878     0.001800     NO 
 RMS     Displacement     0.009724     0.001200     NO 
 Predicted change in Energy=-2.486366D-05
 GradGradGradGradGradGradGradGradGradGradGradGradGradGradGradGradGradGrad

 ---------------------------------------------------------------------------------------------------
                            Z-MATRIX (ANGSTROMS AND DEGREES)
   CD    Cent   Atom    N1       Length/X        N2       Alpha/Y        N3        Beta/Z          J
 ---------------------------------------------------------------------------------------------------
      1      1  C 
      2      2  C        1   1.539487(     1)
      3      3  C        1   1.523527(     2)      2  102.679(    20)
      4      4  H        1   1.092340(     3)      2  112.605(    21)      3  119.736(    38)      0
      5      5  H        1   1.092000(     4)      2  112.282(    22)      3 -119.670(    39)      0
      6      6  C        2   1.522940(     5)      1  102.467(    23)      3    4.862(    40)      0
      7      7  C        3   1.391051(     6)      1  123.903(    24)      2 -103.553(    41)      0
      8      8  H        2   1.089601(     7)      1  112.404(    25)      6 -118.165(    42)      0
      9      9  H        2   1.090815(     8)      1  113.263(    26)      6  120.879(    43)      0
     10     10  H        3   1.084146(     9)      1  116.515(    27)      7 -163.077(    44)      0
     11     11  C        7   1.381217(    10)      3  125.107(    28)      1   18.010(    45)      0
     12     12  C        6   1.390353(    11)      2  124.469(    29)      1   95.517(    46)      0
     13     13  H        6   1.083411(    12)      2  116.360(    30)     12  161.710(    47)      0
     14     14  H        7   1.088404(    13)      3  115.960(    31)     11  163.346(    48)      0
     15     15  C       12   1.374717(    14)      6  124.648(    32)      2  -17.849(    49)      0
     16     16  H       12   1.085753(    15)      6  116.610(    33)     15 -167.928(    50)      0
     17     17  H       11   1.079536(    16)      7  121.561(    34)      3  -26.608(    51)      0
     18     18  H       11   1.082875(    17)      7  120.078(    35)     17 -160.593(    52)      0
     19     19  H       15   1.080262(    18)     12  121.021(    36)      6   23.491(    53)      0
     20     20  H       15   1.081527(    19)     12  120.135(    37)     19  158.912(    54)      0
 ---------------------------------------------------------------------------------------------------
                         Z-Matrix orientation:                         
 ---------------------------------------------------------------------
 Center     Atomic      Atomic             Coordinates (Angstroms)
 Number     Number       Type             X           Y           Z
 ---------------------------------------------------------------------
      1          6           0        0.000000    0.000000    0.000000
      2          6           0        0.000000    0.000000    1.539487
      3          6           0        1.486375    0.000000   -0.334403
      4          1           0       -0.500185   -0.875634   -0.419865
      5          1           0       -0.500176    0.877983   -0.414047
      6          6           0        1.481682    0.126045    1.868242
      7          6           0        2.183981    1.122398   -0.768675
      8          1           0       -0.398494   -0.925185    1.954776
      9          1           0       -0.585379    0.813386    1.970314
     10          1           0        1.946050   -0.968438   -0.496265
     11          6           0        1.755922    2.427900   -0.626587
     12          6           0        2.126833    1.325992    2.145710
     13          1           0        1.983773   -0.781405    2.181641
     14          1           0        3.238222    0.970908   -0.992840
     15          6           0        1.633436    2.569771    1.830398
     16          1           0        3.164472    1.259322    2.458310
     17          1           0        0.707062    2.674534   -0.559777
     18          1           0        2.414464    3.246548   -0.888801
     19          1           0        0.574346    2.729217    1.689425
     20          1           0        2.215518    3.455453    2.045917
 ---------------------------------------------------------------------
                    Distance matrix (angstroms):
                    1          2          3          4          5
     1  C    0.000000
     2  C    1.539487   0.000000
     3  C    1.523527   2.391814   0.000000
     4  H    1.092340   2.203629   2.172662   0.000000
     5  H    1.092000   2.199392   2.173380   1.753626   0.000000
     6  C    2.387802   1.522940   2.206254   3.188509   3.114805
     7  C    2.573016   3.370039   1.391051   3.364304   2.718492
     8  H    2.199071   1.089601   3.106290   2.377334   2.978770
     9  H    2.210521   1.090815   3.203979   2.927969   2.386757
    10  H    2.229633   2.978132   1.084146   2.449187   3.065950
    11  C    3.061139   3.697275   2.460229   4.005757   2.745431
    12  C    3.299355   2.578600   2.884337   4.281420   3.695164
    13  H    3.050493   2.226726   2.681133   3.598161   3.957419
    14  H    3.523419   4.223912   2.108358   4.208766   3.784079
    15  C    3.552772   3.058834   3.363289   4.635389   3.528736
    16  H    4.200365   3.527607   3.493014   5.125587   4.671777
    17  H    2.822484   3.472748   2.794862   3.752427   2.169391
    18  H    4.142424   4.718717   3.421810   5.070253   3.785580
    19  H    3.260776   2.793024   3.517997   4.312618   3.001044
    20  H    4.586333   4.135837   4.258841   5.675688   4.479929
                    6          7          8          9         10
     6  C    0.000000
     7  C    2.905043   0.000000
     8  H    2.155837   4.275390   0.000000
     9  H    2.180733   3.907289   1.748655   0.000000
    10  H    2.646588   2.121889   3.392103   3.958162   0.000000
    11  C    3.405572   1.381217   4.748487   3.851265   3.404152
    12  C    1.390353   2.922046   3.388441   2.765795   3.503873
    13  H    1.083411   3.516946   2.397360   3.031263   2.684695
    14  H    3.461940   1.088404   5.050675   4.839941   2.382721
    15  C    2.448726   3.025421   4.044617   2.833302   4.246176
    16  H    2.112885   3.375433   4.209554   3.807674   3.895765
    17  H    3.604180   2.152685   4.528047   3.396415   3.848424
    18  H    4.267191   2.139993   5.779448   4.805609   4.259062
    19  H    2.762560   3.348888   3.790974   2.257049   4.509043
    20  H    3.413949   3.655964   5.102093   3.851137   5.109415
                   11         12         13         14         15
    11  C    0.000000
    12  C    3.006228   0.000000
    13  H    4.270562   2.112553   0.000000
    14  H    2.110493   3.348398   3.836871   0.000000
    15  C    2.464124   1.374717   3.387696   3.619720   0.000000
    16  H    3.586946   1.085753   2.373850   3.463966   2.110834
    17  H    1.079536   3.339757   4.592263   3.081664   2.565557
    18  H    1.082875   3.602711   5.083062   2.422383   2.908965
    19  H    2.617408   2.141834   3.814869   4.169225   1.080262
    20  H    2.899892   2.133642   4.245361   4.056222   1.081527
                   16         17         18         19         20
    16  H    0.000000
    17  H    4.141321   0.000000
    18  H    3.964182   1.830486   0.000000
    19  H    3.075797   2.253778   3.209504   0.000000
    20  H    2.427668   3.110453   2.948863   1.829740   0.000000
 Symmetry turned off by external request.
 Stoichiometry    C8H12
 Framework group  C1[X(C8H12)]
 Deg. of freedom    54
 Full point group                 C1      NOp   1
 Rotational constants (GHZ):           2.4811740           2.3008377           1.5740243
 Standard basis: def2TZVP (5D, 7F)
 The following finite field(s) will be applied:
 An electric field of              0.0026  0.0024 -0.0094
   320 basis functions,   504 primitive gaussians,   360 cartesian basis functions
    30 alpha electrons       30 beta electrons
       nuclear repulsion energy       367.6470338469 Hartrees.
 NAtoms=   20 NActive=   20 NUniq=   20 SFac= 1.00D+00 NAtFMM=   60 NAOKFM=F Big=F
 Integral buffers will be    131072 words long.
 Raffenetti 2 integral format.
 Two-electron integral symmetry is turned off.
 One-electron integrals computed using PRISM.
   1 Symmetry operations used in ECPInt.
 ECPInt:  NShTT=    9316 NPrTT=   27240 LenC2=    9237 LenP2D=   22115.
 LDataN:  DoStor=T MaxTD1= 6 Len=  172
 NBasis=   320 RedAO= T EigKep=  2.79D-05  NBF=   320
 NBsUse=   320 1.00D-06 EigRej= -1.00D+00 NBFU=   320
 The nuclear repulsion energy is now       367.5381236725 hartrees.
 Initial guess from the checkpoint file:  "checkpoint.chk"
 B after Tr=     0.009060   -0.044983   -0.017649
         Rot=    0.999823    0.015323    0.003531   -0.010356 Ang=   2.16 deg.
 ExpMin= 9.52D-02 ExpMax= 1.36D+04 ExpMxC= 4.63D+02 IAcc=2 IRadAn=         4 AccDes= 0.00D+00
 Harris functional with IExCor=  402 and IRadAn=       4 diagonalized for initial guess.
 HarFok:  IExCor=  402 AccDes= 0.00D+00 IRadAn=         4 IDoV= 1 UseB2=F ITyADJ=14
 ICtDFT=  3500011 ScaDFX=  1.000000  1.000000  1.000000  1.000000
 FoFCou: FMM=F IPFlag=           0 FMFlag=      100000 FMFlg1=           0
         NFxFlg=           0 DoJE=T BraDBF=F KetDBF=T FulRan=T
         wScrn=  0.000000 ICntrl=       500 IOpCl=  0 I1Cent=   200000004 NGrid=           0
         NMat0=    1 NMatS0=      1 NMatT0=    0 NMatD0=    1 NMtDS0=    0 NMtDT0=    0
 Symmetry not used in FoFCou.
 Requested convergence on RMS density matrix=1.00D-08 within 128 cycles.
 Requested convergence on MAX density matrix=1.00D-06.
 Requested convergence on             energy=1.00D-06.
 No special actions if energy rises.
 Integral accuracy reduced to 1.0D-05 until final iterations.
 Initial convergence to 1.0D-05 achieved.  Increase integral accuracy.
 SCF Done:  E(RB3LYP) =  -312.086191689     A.U. after   11 cycles
            NFock= 11  Conv=0.70D-08     -V/T= 2.0056
   1 Symmetry operations used in ECPInt.
 ECPInt:  NShTT=    9316 NPrTT=   27240 LenC2=    9237 LenP2D=   22115.
 LDataN:  DoStor=T MaxTD1= 7 Len=  274
 Calling FoFJK, ICntrl=      2127 FMM=F ISym2X=0 I1Cent= 0 IOpClX= 0 NMat=1 NMatS=1 NMatT=0.
 -------------------------------------------------------------------
 Center     Atomic                   Forces (Hartrees/Bohr)
 Number     Number              X              Y              Z
 -------------------------------------------------------------------
      1        6          -0.000035979   -0.000489264    0.000061706
      2        6           0.000049730    0.000609835   -0.000055464
      3        6          -0.000030846   -0.000140896    0.000045944
      4        1          -0.000004285   -0.000010300    0.000008079
      5        1          -0.000002892    0.000001562    0.000006109
      6        6          -0.000022859   -0.000061447   -0.000052782
      7        6           0.000014777    0.000049291    0.000096488
      8        1          -0.000007829   -0.000006512   -0.000000378
      9        1          -0.000001822    0.000005719   -0.000010890
     10        1          -0.000000605   -0.000006711    0.000002152
     11        6           0.000010966   -0.000018358   -0.000036690
     12        6           0.000045699    0.000057686   -0.000117389
     13        1          -0.000001045   -0.000006827   -0.000000140
     14        1           0.000000368    0.000000595   -0.000007097
     15        6          -0.000026034    0.000008540    0.000051648
     16        1          -0.000001093   -0.000003284    0.000006473
     17        1          -0.000001831    0.000012650    0.000033110
     18        1           0.000003873    0.000004002    0.000014343
     19        1           0.000003948   -0.000008262   -0.000025608
     20        1           0.000007759    0.000001982   -0.000019613
 -------------------------------------------------------------------
 Cartesian Forces:  Max     0.000609835 RMS     0.000107369
 -----------------------------------------------------------------------------------------------
                       Internal Coordinate Forces (Hartree/Bohr or radian)
  Cent   Atom   N1       Length/X         N2         Alpha/Y        N3         Beta/Z          J
 -----------------------------------------------------------------------------------------------
      1  C 
      2  C        1  -0.000224(     1)
      3  C        1  -0.000036(     2)      2  -0.000499(    20)
      4  H        1   0.000007(     3)      2  -0.000024(    21)      3  -0.000003(    38)     0
      5  H        1   0.000000(     4)      2  -0.000014(    22)      3  -0.000003(    39)     0
      6  C        2  -0.000029(     5)      1  -0.000586(    23)      3  -0.000025(    40)     0
      7  C        3   0.000022(     6)      1  -0.000000(    24)      2   0.000318(    41)     0
      8  H        2   0.000008(     7)      1  -0.000008(    25)      6  -0.000009(    42)     0
      9  H        2   0.000001(     8)      1  -0.000025(    26)      6  -0.000004(    43)     0
     10  H        3   0.000005(     9)      1  -0.000008(    27)      7  -0.000004(    44)     0
     11  C        7  -0.000005(    10)      3   0.000016(    28)      1   0.000109(    45)     0
     12  C        6   0.000042(    11)      2  -0.000076(    29)      1  -0.000266(    46)     0
     13  H        6   0.000005(    12)      2  -0.000009(    30)     12   0.000002(    47)     0
     14  H        7   0.000002(    13)      3   0.000005(    31)     11   0.000012(    48)     0
     15  C       12   0.000006(    14)      6  -0.000044(    32)      2  -0.000029(    49)     0
     16  H       12   0.000001(    15)      6  -0.000006(    33)     15  -0.000012(    50)     0
     17  H       11   0.000007(    16)      7   0.000030(    34)      3   0.000029(    51)     0
     18  H       11   0.000002(    17)      7   0.000007(    35)     17  -0.000026(    52)     0
     19  H       15  -0.000002(    18)     12  -0.000005(    36)      6  -0.000010(    53)     0
     20  H       15   0.000002(    19)     12   0.000006(    37)     19   0.000037(    54)     0
 -----------------------------------------------------------------------------------------------
 Internal  Forces:  Max     0.000586092 RMS     0.000125260

 GradGradGradGradGradGradGradGradGradGradGradGradGradGradGradGradGradGrad
 Berny optimization.
 Search for a saddle point.
 Step number   2 out of a maximum of   64
 All quantities printed in internal units (Hartrees-Bohrs-Radians)
 Swapping is turned off.
 Update second derivatives using D2CorN and points    1    2
 ITU=  0  0
     Eigenvalues ---   -0.13080   0.00392   0.01381   0.02208   0.03488
     Eigenvalues ---    0.05901   0.06146   0.07128   0.07364   0.11461
     Eigenvalues ---    0.11714   0.11919   0.13704   0.14044   0.14386
     Eigenvalues ---    0.14584   0.16781   0.16976   0.17329   0.18562
     Eigenvalues ---    0.20150   0.22206   0.23239   0.24288   0.25283
     Eigenvalues ---    0.27302   0.28646   0.28896   0.29565   0.31217
     Eigenvalues ---    0.32648   0.32974   0.33319   0.33428   0.34205
     Eigenvalues ---    0.34964   0.35086   0.35417   0.35492   0.35773
     Eigenvalues ---    0.35928   0.36662   0.36901   0.38249   0.41795
     Eigenvalues ---    0.43218   0.44224   0.46819   0.50297   0.53395
     Eigenvalues ---    0.56828   0.75386   1.22242   2.34018
 Eigenvectors required to have negative eigenvalues:
                          D7        D12       D19       D17       D10
   1                    0.45338  -0.44312   0.24815  -0.24751  -0.22862
                          A3        D13       A6        R12       D18
   1                    0.22676   0.22535   0.22532  -0.20154   0.19854
 RFO step:  Lambda0=1.073371864D-08 Lambda=-9.51502470D-07.
 Linear search not attempted -- option 19 set.
 Variable       Old X    -DE/DX   Delta X   Delta X   Delta X     New X
                                 (Linear)    (Quad)   (Total)
    R2        2.90921  -0.00022   0.00000  -0.00014  -0.00014   2.90907
    R3        2.87905  -0.00004   0.00000   0.00010   0.00010   2.87915
    R4        2.06422   0.00001   0.00000  -0.00003  -0.00003   2.06420
    R5        2.06358   0.00000   0.00000   0.00014   0.00014   2.06372
    R6        2.87794  -0.00003   0.00000  -0.00014  -0.00014   2.87780
    R7        2.62871   0.00002   0.00000   0.00005   0.00005   2.62876
    R8        2.05905   0.00001   0.00000   0.00005   0.00005   2.05910
    R9        2.06134   0.00000   0.00000  -0.00009  -0.00009   2.06126
   R10        2.04874   0.00001   0.00000   0.00003   0.00003   2.04877
   R11        2.61012  -0.00000   0.00000  -0.00010  -0.00010   2.61002
   R12        2.62739   0.00004   0.00000  -0.00001  -0.00001   2.62738
   R13        2.04735   0.00001   0.00000   0.00001   0.00001   2.04736
   R14        2.05679   0.00000   0.00000   0.00002   0.00002   2.05681
   R15        2.59784   0.00001   0.00000   0.00009   0.00009   2.59793
   R16        2.05178   0.00000   0.00000  -0.00000  -0.00000   2.05177
   R17        2.04003   0.00001   0.00000   0.00007   0.00007   2.04010
   R18        2.04634   0.00000   0.00000  -0.00003  -0.00003   2.04631
   R19        2.04140  -0.00000   0.00000  -0.00008  -0.00008   2.04132
   R20        2.04379   0.00000   0.00000   0.00001   0.00001   2.04380
    A3        1.79209  -0.00050   0.00000   0.00039   0.00039   1.79248
    A4        1.96532  -0.00002   0.00000  -0.00058  -0.00058   1.96474
    A5        1.95969  -0.00001   0.00000   0.00037   0.00037   1.96006
    A6        1.78838  -0.00059   0.00000  -0.00048  -0.00048   1.78790
    A7        2.16252  -0.00000   0.00000   0.00027   0.00027   2.16279
    A8        1.96182  -0.00001   0.00000   0.00062   0.00062   1.96244
    A9        1.97682  -0.00003   0.00000  -0.00048  -0.00048   1.97634
   A10        2.03357  -0.00001   0.00000  -0.00005  -0.00005   2.03352
   A11        2.18353   0.00002   0.00000   0.00022   0.00022   2.18374
   A12        2.17239  -0.00008   0.00000  -0.00034  -0.00034   2.17206
   A13        2.03086  -0.00001   0.00000   0.00011   0.00011   2.03097
   A14        2.02389   0.00000   0.00000  -0.00007  -0.00007   2.02382
   A15        2.17552  -0.00004   0.00000  -0.00012  -0.00012   2.17540
   A16        2.03523  -0.00001   0.00000   0.00005   0.00005   2.03529
   A17        2.12165   0.00003   0.00000  -0.00006  -0.00006   2.12159
   A18        2.09575   0.00001   0.00000   0.00018   0.00018   2.09593
   A19        2.11221  -0.00001   0.00000   0.00017   0.00017   2.11238
   A20        2.09676   0.00001   0.00000  -0.00009  -0.00009   2.09667
    D4        2.08979  -0.00000   0.00000  -0.00081  -0.00081   2.08898
    D5       -2.08863  -0.00000   0.00000  -0.00086  -0.00086  -2.08948
    D6        0.08486  -0.00002   0.00000  -0.00747  -0.00747   0.07739
    D7       -1.80734   0.00032   0.00000   0.00592   0.00592  -1.80143
    D8       -2.06236  -0.00001   0.00000  -0.00085  -0.00085  -2.06321
    D9        2.10975  -0.00000   0.00000  -0.00091  -0.00091   2.10884
   D10       -2.84624  -0.00000   0.00000   0.00070   0.00070  -2.84554
   D11        0.31433   0.00011   0.00000   0.00147   0.00147   0.31580
   D12        1.66709  -0.00027   0.00000   0.00550   0.00550   1.67259
   D13        2.82238   0.00000   0.00000   0.00070   0.00070   2.82308
   D14        2.85092   0.00001   0.00000   0.00002   0.00002   2.85094
   D15       -0.31152  -0.00003   0.00000   0.00178   0.00178  -0.30974
   D16       -2.93090  -0.00001   0.00000  -0.00027  -0.00027  -2.93118
   D17       -0.46440   0.00003   0.00000   0.00125   0.00125  -0.46315
   D18       -2.80288  -0.00003   0.00000  -0.00049  -0.00049  -2.80336
   D19        0.41000  -0.00001   0.00000   0.00083   0.00083   0.41083
   D20        2.77353   0.00004   0.00000   0.00014   0.00014   2.77367
         Item               Value     Threshold  Converged?
 Maximum Force            0.000586     0.000450     NO 
 RMS     Force            0.000125     0.000300     YES
 Maximum Displacement     0.007471     0.001800     NO 
 RMS     Displacement     0.001580     0.001200     NO 
 Predicted change in Energy=-4.703844D-07
 GradGradGradGradGradGradGradGradGradGradGradGradGradGradGradGradGradGrad

 ---------------------------------------------------------------------------------------------------
                            Z-MATRIX (ANGSTROMS AND DEGREES)
   CD    Cent   Atom    N1       Length/X        N2       Alpha/Y        N3        Beta/Z          J
 ---------------------------------------------------------------------------------------------------
      1      1  C 
      2      2  C        1   1.539413(     1)
      3      3  C        1   1.523579(     2)      2  102.701(    20)
      4      4  H        1   1.092325(     3)      2  112.571(    21)      3  119.689(    38)      0
      5      5  H        1   1.092075(     4)      2  112.303(    22)      3 -119.719(    39)      0
      6      6  C        2   1.522869(     5)      1  102.439(    23)      3    4.434(    40)      0
      7      7  C        3   1.391078(     6)      1  123.919(    24)      2 -103.214(    41)      0
      8      8  H        2   1.089627(     7)      1  112.440(    25)      6 -118.213(    42)      0
      9      9  H        2   1.090770(     8)      1  113.236(    26)      6  120.827(    43)      0
     10     10  H        3   1.084163(     9)      1  116.512(    27)      7 -163.037(    44)      0
     11     11  C        7   1.381165(    10)      3  125.119(    28)      1   18.094(    45)      0
     12     12  C        6   1.390348(    11)      2  124.450(    29)      1   95.832(    46)      0
     13     13  H        6   1.083417(    12)      2  116.366(    30)     12  161.750(    47)      0
     14     14  H        7   1.088415(    13)      3  115.956(    31)     11  163.347(    48)      0
     15     15  C       12   1.374764(    14)      6  124.641(    32)      2  -17.747(    49)      0
     16     16  H       12   1.085751(    15)      6  116.613(    33)     15 -167.944(    50)      0
     17     17  H       11   1.079573(    16)      7  121.558(    34)      3  -26.537(    51)      0
     18     18  H       11   1.082858(    17)      7  120.088(    35)     17 -160.621(    52)      0
     19     19  H       15   1.080219(    18)     12  121.030(    36)      6   23.539(    53)      0
     20     20  H       15   1.081530(    19)     12  120.130(    37)     19  158.920(    54)      0
 ---------------------------------------------------------------------------------------------------
                         Z-Matrix orientation:                         
 ---------------------------------------------------------------------
 Center     Atomic      Atomic             Coordinates (Angstroms)
 Number     Number       Type             X           Y           Z
 ---------------------------------------------------------------------
      1          6           0        0.000000    0.000000    0.000000
      2          6           0        0.000000    0.000000    1.539413
      3          6           0        1.486295    0.000000   -0.334991
      4          1           0       -0.499586   -0.876241   -0.419273
      5          1           0       -0.500884    0.877479   -0.414454
      6          6           0        1.482668    0.114978    1.867444
      7          6           0        2.185526    1.123794   -0.763082
      8          1           0       -0.406081   -0.921626    1.955334
      9          1           0       -0.578639    0.818399    1.969737
     10          1           0        1.944462   -0.968078   -0.503272
     11          6           0        1.760581    2.429257   -0.612069
     12          6           0        2.135193    1.309584    2.150630
     13          1           0        1.979585   -0.797340    2.174917
     14          1           0        3.239119    0.971557   -0.989820
     15          6           0        1.647873    2.557972    1.843999
     16          1           0        3.173111    1.235255    2.460561
     17          1           0        0.712368    2.677598   -0.540976
     18          1           0        2.420139    3.248211   -0.870682
     19          1           0        0.589344    2.724396    1.707280
     20          1           0        2.235788    3.439025    2.062653
 ---------------------------------------------------------------------
                    Distance matrix (angstroms):
                    1          2          3          4          5
     1  C    0.000000
     2  C    1.539413   0.000000
     3  C    1.523579   2.392167   0.000000
     4  H    1.092325   2.203142   2.172239   0.000000
     5  H    1.092075   2.199648   2.173745   1.753728   0.000000
     6  C    2.387231   1.522869   2.205437   3.184481   3.118164
     7  C    2.573272   3.367628   1.391078   3.365734   2.720112
     8  H    2.199461   1.089627   3.110638   2.376881   2.976855
     9  H    2.210082   1.090770   3.200859   2.930089   2.386190
    10  H    2.229661   2.981722   1.084163   2.447215   3.064912
    11  C    3.061954   3.691857   2.460345   4.008970   2.749780
    12  C    3.301404   2.578303   2.883468   4.280689   3.703414
    13  H    3.047093   2.226741   2.679315   3.589197   3.957600
    14  H    3.523572   4.222894   2.108345   4.209251   3.785171
    15  C    3.557955   3.058019   3.364123   4.639806   3.541444
    16  H    4.201053   3.527464   3.490890   5.122554   4.678884
    17  H    2.823057   3.464825   2.794803   3.756782   2.174492
    18  H    4.143191   4.713438   3.421974   5.073427   3.789576
    19  H    3.268710   2.792462   3.521041   4.321179   3.016862
    20  H    4.591315   4.135145   4.258794   5.680119   4.492989
                    6          7          8          9         10
     6  C    0.000000
     7  C    2.903685   0.000000
     8  H    2.156304   4.276676   0.000000
     9  H    2.180424   3.898996   1.748620   0.000000
    10  H    2.646991   2.121684   3.401758   3.958953   0.000000
    11  C    3.403102   1.381165   4.744934   3.838298   3.404047
    12  C    1.390348   2.920063   3.387405   2.763850   3.502473
    13  H    1.083417   3.516392   2.398972   3.032692   2.683856
    14  H    3.461619   1.088415   5.054262   4.832982   2.382236
    15  C    2.448686   3.023708   4.042119   2.828299   4.246254
    16  H    2.112914   3.373370   4.209276   3.806613   3.892115
    17  H    3.600120   2.152633   4.520719   3.380384   3.848431
    18  H    4.265364   2.140039   5.775935   4.792142   4.258914
    19  H    2.762742   3.348494   3.787595   2.250754   4.511901
    20  H    3.413881   3.653436   5.099634   3.846727   5.107973
                   11         12         13         14         15
    11  C    0.000000
    12  C    3.004414   0.000000
    13  H    4.269214   2.112803   0.000000
    14  H    2.110370   3.345944   3.838097   0.000000
    15  C    2.462019   1.374764   3.387870   3.616533   0.000000
    16  H    3.586354   1.085751   2.374350   3.461073   2.110943
    17  H    1.079573   3.337758   4.588803   3.081640   2.564680
    18  H    1.082858   3.601082   5.082937   2.422412   2.905566
    19  H    2.615011   2.141938   3.814981   4.167506   1.080219
    20  H    2.898204   2.133630   4.245590   4.051255   1.081530
                   16         17         18         19         20
    16  H    0.000000
    17  H    4.140632   0.000000
    18  H    3.964359   1.830515   0.000000
    19  H    3.075845   2.252106   3.205008   0.000000
    20  H    2.427655   3.111183   2.945309   1.829689   0.000000
 Symmetry turned off by external request.
 Stoichiometry    C8H12
 Framework group  C1[X(C8H12)]
 Deg. of freedom    54
 Full point group                 C1      NOp   1
 Rotational constants (GHZ):           2.4818946           2.3016091           1.5746570
 Standard basis: def2TZVP (5D, 7F)
 The following finite field(s) will be applied:
 An electric field of              0.0026  0.0024 -0.0094
   320 basis functions,   504 primitive gaussians,   360 cartesian basis functions
    30 alpha electrons       30 beta electrons
       nuclear repulsion energy       367.6866660796 Hartrees.
 NAtoms=   20 NActive=   20 NUniq=   20 SFac= 1.00D+00 NAtFMM=   60 NAOKFM=F Big=F
 Integral buffers will be    131072 words long.
 Raffenetti 2 integral format.
 Two-electron integral symmetry is turned off.
 One-electron integrals computed using PRISM.
   1 Symmetry operations used in ECPInt.
 ECPInt:  NShTT=    9316 NPrTT=   27240 LenC2=    9237 LenP2D=   22118.
 LDataN:  DoStor=T MaxTD1= 6 Len=  172
 NBasis=   320 RedAO= T EigKep=  2.77D-05  NBF=   320
 NBsUse=   320 1.00D-06 EigRej= -1.00D+00 NBFU=   320
 The nuclear repulsion energy is now       367.5726032079 hartrees.
 Initial guess from the checkpoint file:  "checkpoint.chk"
 B after Tr=    -0.001596    0.008310    0.002561
         Rot=    0.999994   -0.002717   -0.000691    0.001911 Ang=  -0.39 deg.
 Requested convergence on RMS density matrix=1.00D-08 within 128 cycles.
 Requested convergence on MAX density matrix=1.00D-06.
 Requested convergence on             energy=1.00D-06.
 No special actions if energy rises.
 SCF Done:  E(RB3LYP) =  -312.086191923     A.U. after    8 cycles
            NFock=  8  Conv=0.77D-08     -V/T= 2.0056
   1 Symmetry operations used in ECPInt.
 ECPInt:  NShTT=    9316 NPrTT=   27240 LenC2=    9237 LenP2D=   22118.
 LDataN:  DoStor=T MaxTD1= 7 Len=  274
 Calling FoFJK, ICntrl=      2127 FMM=F ISym2X=0 I1Cent= 0 IOpClX= 0 NMat=1 NMatS=1 NMatT=0.
 -------------------------------------------------------------------
 Center     Atomic                   Forces (Hartrees/Bohr)
 Number     Number              X              Y              Z
 -------------------------------------------------------------------
      1        6          -0.000076952   -0.000453436   -0.000014643
      2        6           0.000073079    0.000587703    0.000014004
      3        6           0.000008348   -0.000133654   -0.000009605
      4        1           0.000000731    0.000002394   -0.000001818
      5        1           0.000000946   -0.000000040   -0.000002284
      6        6           0.000008149    0.000015428    0.000011513
      7        6          -0.000003989   -0.000010525   -0.000024416
      8        1           0.000001457    0.000001787    0.000000863
      9        1           0.000000548   -0.000000741    0.000001940
     10        1           0.000000052    0.000001069   -0.000000974
     11        6          -0.000002051    0.000003504    0.000006740
     12        6          -0.000012153   -0.000008805    0.000031766
     13        1          -0.000000154    0.000001491    0.000000775
     14        1          -0.000000068   -0.000000213    0.000001101
     15        6           0.000004007    0.000000340   -0.000012067
     16        1           0.000000837   -0.000000321   -0.000001909
     17        1          -0.000000224   -0.000003264   -0.000007453
     18        1          -0.000000562   -0.000000876   -0.000002865
     19        1          -0.000000253   -0.000001343    0.000004789
     20        1          -0.000001747   -0.000000500    0.000004547
 -------------------------------------------------------------------
 Cartesian Forces:  Max     0.000587703 RMS     0.000098613
 -----------------------------------------------------------------------------------------------
                       Internal Coordinate Forces (Hartree/Bohr or radian)
  Cent   Atom   N1       Length/X         N2         Alpha/Y        N3         Beta/Z          J
 -----------------------------------------------------------------------------------------------
      1  C 
      2  C        1   0.000056(     1)
      3  C        1   0.000010(     2)      2   0.000129(    20)
      4  H        1  -0.000002(     3)      2   0.000005(    21)      3   0.000001(    38)     0
      5  H        1   0.000000(     4)      2   0.000005(    22)      3   0.000002(    39)     0
      6  C        2   0.000008(     5)      1   0.000151(    23)      3   0.000029(    40)     0
      7  C        3  -0.000004(     6)      1  -0.000000(    24)      2  -0.000082(    41)     0
      8  H        2  -0.000002(     7)      1   0.000003(    25)      6   0.000001(    42)     0
      9  H        2  -0.000000(     8)      1   0.000004(    26)      6  -0.000000(    43)     0
     10  H        3  -0.000001(     9)      1   0.000001(    27)      7   0.000002(    44)     0
     11  C        7  -0.000000(    10)      3  -0.000004(    28)      1  -0.000026(    45)     0
     12  C        6  -0.000008(    11)      2   0.000001(    29)      1   0.000065(    46)     0
     13  H        6  -0.000001(    12)      2   0.000001(    30)     12  -0.000002(    47)     0
     14  H        7  -0.000000(    13)      3  -0.000001(    31)     11  -0.000002(    48)     0
     15  C       12  -0.000001(    14)      6  -0.000001(    32)      2   0.000005(    49)     0
     16  H       12   0.000000(    15)      6  -0.000001(    33)     15   0.000004(    50)     0
     17  H       11  -0.000001(    16)      7  -0.000008(    34)      3  -0.000007(    51)     0
     18  H       11  -0.000000(    17)      7  -0.000002(    35)     17   0.000005(    52)     0
     19  H       15  -0.000001(    18)     12  -0.000005(    36)      6  -0.000001(    53)     0
     20  H       15  -0.000000(    19)     12  -0.000001(    37)     19  -0.000009(    54)     0
 -----------------------------------------------------------------------------------------------
 Internal  Forces:  Max     0.000151150 RMS     0.000032175

 GradGradGradGradGradGradGradGradGradGradGradGradGradGradGradGradGradGrad
 Berny optimization.
 Search for a saddle point.
 Step number   3 out of a maximum of   64
 All quantities printed in internal units (Hartrees-Bohrs-Radians)
 Swapping is turned off.
 Update second derivatives using D2CorN and points    1    2    3
 ITU=  0  0  0
     Eigenvalues ---   -0.13081   0.00613   0.01378   0.02212   0.03489
     Eigenvalues ---    0.05900   0.06145   0.07127   0.07364   0.11461
     Eigenvalues ---    0.11715   0.11919   0.13704   0.14044   0.14386
     Eigenvalues ---    0.14585   0.16782   0.16977   0.17330   0.18563
     Eigenvalues ---    0.20150   0.22207   0.23239   0.24288   0.25284
     Eigenvalues ---    0.27303   0.28647   0.28896   0.29565   0.31217
     Eigenvalues ---    0.32648   0.32974   0.33319   0.33428   0.34205
     Eigenvalues ---    0.34964   0.35086   0.35417   0.35492   0.35773
     Eigenvalues ---    0.35928   0.36662   0.36901   0.38249   0.41795
     Eigenvalues ---    0.43218   0.44224   0.46820   0.50297   0.53395
     Eigenvalues ---    0.56829   0.75386   1.22240   2.34092
 Eigenvectors required to have negative eigenvalues:
                          D7        D12       D19       D17       D10
   1                    0.45458  -0.44181   0.24837  -0.24723  -0.22840
                          A3        D13       A6        R12       D18
   1                    0.22688   0.22543   0.22531  -0.20154   0.19847
 RFO step:  Lambda0=5.006043358D-10 Lambda=-1.43991674D-07.
 Linear search not attempted -- option 19 set.
 Variable       Old X    -DE/DX   Delta X   Delta X   Delta X     New X
                                 (Linear)    (Quad)   (Total)
    R2        2.90907   0.00006   0.00000   0.00001   0.00001   2.90908
    R3        2.87915   0.00001   0.00000  -0.00005  -0.00005   2.87910
    R4        2.06420  -0.00000   0.00000   0.00002   0.00002   2.06421
    R5        2.06372   0.00000   0.00000  -0.00005  -0.00005   2.06367
    R6        2.87780   0.00001   0.00000   0.00006   0.00006   2.87786
    R7        2.62876  -0.00000   0.00000  -0.00003  -0.00003   2.62873
    R8        2.05910  -0.00000   0.00000  -0.00002  -0.00002   2.05908
    R9        2.06126  -0.00000   0.00000   0.00003   0.00003   2.06129
   R10        2.04877  -0.00000   0.00000  -0.00001  -0.00001   2.04876
   R11        2.61002  -0.00000   0.00000   0.00005   0.00005   2.61007
   R12        2.62738  -0.00001   0.00000   0.00001   0.00001   2.62739
   R13        2.04736  -0.00000   0.00000  -0.00000  -0.00000   2.04736
   R14        2.05681  -0.00000   0.00000  -0.00001  -0.00001   2.05680
   R15        2.59793  -0.00000   0.00000  -0.00002  -0.00002   2.59790
   R16        2.05177   0.00000   0.00000   0.00000   0.00000   2.05177
   R17        2.04010  -0.00000   0.00000  -0.00002  -0.00002   2.04007
   R18        2.04631  -0.00000   0.00000   0.00001   0.00001   2.04632
   R19        2.04132  -0.00000   0.00000   0.00002   0.00002   2.04134
   R20        2.04380  -0.00000   0.00000  -0.00000  -0.00000   2.04379
    A3        1.79248   0.00013   0.00000  -0.00013  -0.00013   1.79234
    A4        1.96474   0.00001   0.00000   0.00019   0.00019   1.96494
    A5        1.96006   0.00000   0.00000  -0.00013  -0.00013   1.95993
    A6        1.78790   0.00015   0.00000   0.00015   0.00015   1.78806
    A7        2.16279  -0.00000   0.00000  -0.00010  -0.00010   2.16269
    A8        1.96244   0.00000   0.00000  -0.00021  -0.00021   1.96223
    A9        1.97634   0.00000   0.00000   0.00015   0.00015   1.97649
   A10        2.03352   0.00000   0.00000   0.00002   0.00002   2.03354
   A11        2.18374  -0.00000   0.00000  -0.00006  -0.00006   2.18368
   A12        2.17206   0.00000   0.00000   0.00009   0.00009   2.17215
   A13        2.03097   0.00000   0.00000  -0.00002  -0.00002   2.03095
   A14        2.02382  -0.00000   0.00000   0.00002   0.00002   2.02384
   A15        2.17540  -0.00000   0.00000   0.00002   0.00002   2.17543
   A16        2.03529  -0.00000   0.00000  -0.00002  -0.00002   2.03527
   A17        2.12159  -0.00001   0.00000   0.00004   0.00004   2.12163
   A18        2.09593  -0.00000   0.00000  -0.00007  -0.00007   2.09586
   A19        2.11238  -0.00000   0.00000  -0.00010  -0.00010   2.11227
   A20        2.09667  -0.00000   0.00000   0.00006   0.00006   2.09672
    D4        2.08898   0.00000   0.00000   0.00029   0.00029   2.08927
    D5       -2.08948   0.00000   0.00000   0.00030   0.00030  -2.08918
    D6        0.07739   0.00003   0.00000   0.00277   0.00277   0.08016
    D7       -1.80143  -0.00008   0.00000  -0.00211  -0.00211  -1.80353
    D8       -2.06321   0.00000   0.00000   0.00028   0.00028  -2.06293
    D9        2.10884  -0.00000   0.00000   0.00030   0.00030   2.10914
   D10       -2.84554   0.00000   0.00000  -0.00032  -0.00032  -2.84586
   D11        0.31580  -0.00003   0.00000  -0.00060  -0.00060   0.31521
   D12        1.67259   0.00006   0.00000  -0.00212  -0.00212   1.67047
   D13        2.82308  -0.00000   0.00000  -0.00022  -0.00022   2.82286
   D14        2.85094  -0.00000   0.00000   0.00003   0.00003   2.85097
   D15       -0.30974   0.00001   0.00000  -0.00057  -0.00057  -0.31032
   D16       -2.93118   0.00000   0.00000   0.00005   0.00005  -2.93113
   D17       -0.46315  -0.00001   0.00000  -0.00046  -0.00046  -0.46361
   D18       -2.80336   0.00001   0.00000   0.00013   0.00013  -2.80323
   D19        0.41083  -0.00000   0.00000  -0.00039  -0.00039   0.41043
   D20        2.77367  -0.00001   0.00000   0.00001   0.00001   2.77368
         Item               Value     Threshold  Converged?
 Maximum Force            0.000151     0.000450     YES
 RMS     Force            0.000032     0.000300     YES
 Maximum Displacement     0.002768     0.001800     NO 
 RMS     Displacement     0.000584     0.001200     YES
 Predicted change in Energy=-7.174553D-08
 GradGradGradGradGradGradGradGradGradGradGradGradGradGradGradGradGradGrad

 ---------------------------------------------------------------------------------------------------
                            Z-MATRIX (ANGSTROMS AND DEGREES)
   CD    Cent   Atom    N1       Length/X        N2       Alpha/Y        N3        Beta/Z          J
 ---------------------------------------------------------------------------------------------------
      1      1  C 
      2      2  C        1   1.539419(     1)
      3      3  C        1   1.523552(     2)      2  102.694(    20)
      4      4  H        1   1.092333(     3)      2  112.583(    21)      3  119.706(    38)      0
      5      5  H        1   1.092049(     4)      2  112.296(    22)      3 -119.701(    39)      0
      6      6  C        2   1.522900(     5)      1  102.448(    23)      3    4.593(    40)      0
      7      7  C        3   1.391065(     6)      1  123.913(    24)      2 -103.335(    41)      0
      8      8  H        2   1.089619(     7)      1  112.428(    25)      6 -118.197(    42)      0
      9      9  H        2   1.090787(     8)      1  113.244(    26)      6  120.845(    43)      0
     10     10  H        3   1.084159(     9)      1  116.513(    27)      7 -163.056(    44)      0
     11     11  C        7   1.381189(    10)      3  125.116(    28)      1   18.060(    45)      0
     12     12  C        6   1.390353(    11)      2  124.455(    29)      1   95.711(    46)      0
     13     13  H        6   1.083416(    12)      2  116.365(    30)     12  161.738(    47)      0
     14     14  H        7   1.088411(    13)      3  115.958(    31)     11  163.348(    48)      0
     15     15  C       12   1.374751(    14)      6  124.643(    32)      2  -17.780(    49)      0
     16     16  H       12   1.085752(    15)      6  116.612(    33)     15 -167.941(    50)      0
     17     17  H       11   1.079560(    16)      7  121.560(    34)      3  -26.563(    51)      0
     18     18  H       11   1.082865(    17)      7  120.084(    35)     17 -160.613(    52)      0
     19     19  H       15   1.080231(    18)     12  121.024(    36)      6   23.516(    53)      0
     20     20  H       15   1.081528(    19)     12  120.133(    37)     19  158.920(    54)      0
 ---------------------------------------------------------------------------------------------------
                         Z-Matrix orientation:                         
 ---------------------------------------------------------------------
 Center     Atomic      Atomic             Coordinates (Angstroms)
 Number     Number       Type             X           Y           Z
 ---------------------------------------------------------------------
      1          6           0        0.000000    0.000000    0.000000
      2          6           0        0.000000    0.000000    1.539419
      3          6           0        1.486314    0.000000   -0.334785
      4          1           0       -0.499806   -0.876031   -0.419471
      5          1           0       -0.500636    0.877657   -0.414309
      6          6           0        1.482323    0.119081    1.867688
      7          6           0        2.184962    1.123297   -0.765082
      8          1           0       -0.403301   -0.922932    1.955127
      9          1           0       -0.581118    0.816579    1.969903
     10          1           0        1.945038   -0.968215   -0.500714
     11          6           0        1.758888    2.428790   -0.617331
     12          6           0        2.132107    1.315712    2.148647
     13          1           0        1.981179   -0.791425    2.177383
     14          1           0        3.238796    0.971329   -0.990869
     15          6           0        1.642438    2.562365    1.838773
     16          1           0        3.169943    1.244263    2.459530
     17          1           0        0.710442    2.676547   -0.547848
     18          1           0        2.418117    3.247627   -0.877177
     19          1           0        0.583679    2.726090    1.700490
     20          1           0        2.228142    3.445194    2.056179
 ---------------------------------------------------------------------
                    Distance matrix (angstroms):
                    1          2          3          4          5
     1  C    0.000000
     2  C    1.539419   0.000000
     3  C    1.523552   2.392023   0.000000
     4  H    1.092333   2.203290   2.172390   0.000000
     5  H    1.092049   2.199540   2.173609   1.753696   0.000000
     6  C    2.387409   1.522900   2.205694   3.185935   3.116902
     7  C    2.573171   3.368469   1.391065   3.365225   2.719525
     8  H    2.199313   1.089619   3.109043   2.377021   2.977554
     9  H    2.210208   1.090787   3.201979   2.929275   2.386353
    10  H    2.229647   2.980396   1.084159   2.447930   3.065294
    11  C    3.061667   3.693817   2.460315   4.007829   2.748214
    12  C    3.300554   2.578398   2.883674   4.280879   3.700266
    13  H    3.048348   2.226751   2.679969   3.592506   3.957539
    14  H    3.523507   4.223226   2.108345   4.209083   3.784778
    15  C    3.555897   3.058256   3.363695   4.638043   3.536578
    16  H    4.200717   3.527511   3.491561   5.123608   4.676163
    17  H    2.822901   3.467754   2.794867   3.755262   2.172682
    18  H    4.142923   4.715327   3.421918   5.072309   3.788155
    19  H    3.265565   2.792524   3.519753   4.317806   3.010784
    20  H    4.589319   4.135338   4.258683   5.678339   4.487960
                    6          7          8          9         10
     6  C    0.000000
     7  C    2.904072   0.000000
     8  H    2.156158   4.276178   0.000000
     9  H    2.180537   3.901977   1.748639   0.000000
    10  H    2.646818   2.121763   3.398220   3.958649   0.000000
    11  C    3.403905   1.381189   4.746225   3.842998   3.404100
    12  C    1.390353   2.920554   3.387812   2.764538   3.502917
    13  H    1.083416   3.516503   2.398424   3.032176   2.684170
    14  H    3.461629   1.088411   5.052919   4.835480   2.382414
    15  C    2.448695   3.024121   4.043004   2.830047   4.246147
    16  H    2.112907   3.373863   4.209422   3.806981   3.893392
    17  H    3.601562   2.152670   4.523446   3.386248   3.848473
    18  H    4.265887   2.140024   5.777189   4.797006   4.258973
    19  H    2.762610   3.348448   3.788711   2.252902   4.510708
    20  H    3.413914   3.654119   5.100513   3.848247   5.108428
                   11         12         13         14         15
    11  C    0.000000
    12  C    3.004808   0.000000
    13  H    4.269617   2.112730   0.000000
    14  H    2.110415   3.346628   3.837542   0.000000
    15  C    2.462488   1.374751   3.387818   3.617544   0.000000
    16  H    3.586260   1.085752   2.374193   3.461862   2.110925
    17  H    1.079560   3.338276   4.590042   3.081657   2.564685
    18  H    1.082865   3.601348   5.082833   2.422390   2.906483
    19  H    2.615683   2.141878   3.814885   4.168003   1.080231
    20  H    2.898436   2.133652   4.245542   4.052892   1.081528
                   16         17         18         19         20
    16  H    0.000000
    17  H    4.140641   0.000000
    18  H    3.963877   1.830504   0.000000
    19  H    3.075828   2.252453   3.206483   0.000000
    20  H    2.427711   3.110496   2.946132   1.829723   0.000000
 Symmetry turned off by external request.
 Stoichiometry    C8H12
 Framework group  C1[X(C8H12)]
 Deg. of freedom    54
 Full point group                 C1      NOp   1
 Rotational constants (GHZ):           2.4818796           2.3013196           1.5745284
 Standard basis: def2TZVP (5D, 7F)
 The following finite field(s) will be applied:
 An electric field of              0.0026  0.0024 -0.0094
   320 basis functions,   504 primitive gaussians,   360 cartesian basis functions
    30 alpha electrons       30 beta electrons
       nuclear repulsion energy       367.6783613133 Hartrees.
 NAtoms=   20 NActive=   20 NUniq=   20 SFac= 1.00D+00 NAtFMM=   60 NAOKFM=F Big=F
 Integral buffers will be    131072 words long.
[...]
 03101814,0.00888723,0.00019938,0.00103796,-0.00027506,0.09048405,0.002
 02991,0.00195194,-0.00191199,-0.08235991,-0.24460992,0.08495102,-0.000
 16855,-0.00018333,-0.00072627,0.00006606,0.00169004,-0.00000385,-0.000
 22011,0.00098309,-0.00009652,0.00040609,-0.00071137,0.00000669,0.00019
 517,0.00000102,0.00016060,0.08958620,0.25997282,0.00910438,0.02684707,
 -0.01335735,0.03667451,0.08448485,-0.08316111,-0.00035603,0.00036093,-
 0.00242713,-0.00022390,0.00015551,0.00250312,0.00096904,0.00032330,-0.
 00442609,-0.00335464,-0.00972214,0.00332367,0.00090445,-0.00056399,0.0
 0014822,-0.03684835,-0.09092254,0.09184413,0.00143288,-0.00302898,-0.0
 0124231,-0.11986694,0.10311984,0.05261168,-0.00135263,-0.00129553,0.00
 173988,-0.00019703,-0.00034729,-0.00099528,0.00105594,-0.00010456,0.00
 017228,-0.01722552,0.02502665,0.00777117,0.00026398,0.00105299,-0.0002
 0082,0.00745736,-0.00888442,-0.00515851,0.12959819,-0.00265340,0.00091
 759,0.00256718,0.10354061,-0.19978918,-0.07719671,0.00024672,0.0000311
 3,0.00141301,0.00013373,0.00067555,-0.00035192,-0.00011137,0.00165596,
 -0.00000990,0.00013730,0.00366043,0.00235054,-0.00021763,0.00011449,-0
 .00018173,0.01502508,-0.02099023,-0.01073827,-0.11375500,0.21413148,0.
 01472415,-0.02350080,-0.01248431,0.05265285,-0.07656012,-0.08504067,0.
 00015962,0.00086946,-0.00390898,0.00072816,-0.00036026,-0.00352006,-0.
 00004568,-0.00004064,0.00259570,-0.00398646,0.00939317,0.00327809,0.00
 066341,-0.00176705,-0.00013548,-0.00698462,0.00888103,0.00553130,-0.05
 610765,0.08257934,0.09328625,-0.01072674,0.02547700,0.00283920,-0.0011
 6117,0.00007440,-0.00053510,-0.10258802,0.10581936,0.02655614,0.001730
 50,-0.00019363,-0.00064703,-0.00499935,0.00012721,0.00213548,-0.000139
 82,-0.00303165,-0.00244037,0.00784985,-0.01376206,-0.00331187,-0.00001
 603,0.00001515,0.00044403,0.00010515,-0.00009614,0.00041358,0.10750717
 ,-0.00253203,0.00275163,0.00102505,0.00007053,-0.00014541,-0.00010894,
 0.10388806,-0.27560228,-0.03457610,0.00045991,0.00124473,-0.00001375,-
 0.00075032,0.00089674,-0.00011246,0.00021706,-0.00054134,0.00012875,0.
 01286800,-0.02041142,-0.00585660,0.00003610,0.00002385,-0.00001991,-0.
 00001046,-0.00002714,-0.00003935,-0.11028019,0.29281887,0.00115932,-0.
 00387120,0.00118483,-0.00014564,0.00093154,0.00001926,0.02555171,-0.04
 503800,-0.03252371,0.00027839,0.00049707,0.00115435,-0.00049710,0.0009
 9946,-0.00087273,0.00074618,-0.00872582,-0.00699279,-0.00424829,0.0190
 3953,0.00314635,0.00030138,-0.00000612,-0.00021200,-0.00007402,-0.0000
 5084,0.00007781,-0.02704670,0.03727665,0.03424994,0.00176290,0.0007738
 9,-0.00237327,0.00327360,-0.00004232,0.00150721,0.01664992,-0.00690469
 ,-0.01401713,0.00031968,0.00013967,0.00028529,-0.00028066,-0.00133897,
 -0.00028761,0.00068277,0.00313426,0.00991946,-0.14172895,0.07281760,0.
 02342097,0.00027241,-0.00002930,-0.00023727,0.00019528,0.00020830,-0.0
 0023331,-0.00008193,-0.00400743,0.00432933,0.62986180,-0.00370966,-0.0
 0036362,-0.00011228,-0.00527716,0.00085550,-0.00214526,-0.00575893,-0.
 06145886,0.04001094,-0.00013398,-0.00026421,-0.00028388,-0.00100150,-0
 .00041860,-0.00006806,0.00217062,-0.01892446,-0.03135095,0.10391003,-0
 .32540385,-0.02780220,-0.00059082,0.00010584,0.00004958,-0.00096922,-0
 .00017171,0.00064769,-0.00349307,-0.00183261,-0.00224273,-0.02464843,0
 .68346859,-0.00316810,0.00077725,-0.00119119,-0.00412214,0.00009416,-0
 .00129092,-0.00923904,-0.01242926,0.03198585,-0.00077799,0.00039229,-0
 .00007225,-0.00104282,-0.00046692,-0.00026122,-0.00688261,-0.02170838,
 -0.02978629,0.02522995,0.01668007,-0.04890002,-0.00023076,-0.00002390,
 0.00021795,-0.00016322,-0.00019133,0.00066080,0.00115831,0.00196732,0.
 00131426,-0.08691255,-0.05932639,0.08159856,-0.00238070,-0.00119192,0.
 00063118,-0.01264950,-0.02673531,-0.00966210,-0.00200343,0.00372166,-0
 .00127874,0.00026039,0.00012671,-0.00110098,0.00007787,-0.00001382,-0.
 00045650,-0.16840268,-0.11741542,-0.03776904,0.00503823,-0.00269722,0.
 00426007,-0.00456113,-0.00031832,-0.00155358,0.00194396,-0.00087711,-0
 .00006918,0.00069198,0.00000674,0.00120452,-0.00113331,0.00009269,0.00
 416418,0.62981212,0.01073163,-0.00011802,-0.00439842,0.00337888,0.0057
 0484,-0.00040095,-0.00244054,0.01927925,-0.06750899,0.00150691,-0.0000
 2405,0.00066072,0.00094283,-0.00004792,0.00098002,-0.09482008,-0.26520
 236,0.01841213,-0.00552458,-0.05428309,0.00321515,0.00291401,0.0004632
 4,-0.00041830,0.00168982,-0.00031267,-0.00099141,0.00178268,0.00040613
 ,0.00474469,-0.00860583,0.02741382,0.05080960,-0.01138940,0.68366614,0
 .00026529,0.00063909,-0.00060971,-0.00185964,-0.00448421,0.00149973,-0
 .00154114,-0.00280176,-0.01190006,0.00014419,-0.00003255,0.00017288,0.
 00001372,-0.00000519,-0.00024558,-0.04181511,-0.04483254,-0.06269025,-
 0.00241958,0.00071021,-0.01231297,0.00005022,0.00028918,-0.00098592,-0
 .00021032,0.00044802,0.00104669,-0.00024860,-0.00001149,-0.00059100,-0
 .00037295,-0.00165236,-0.01236637,0.16308697,-0.02408793,0.21214038,-0
 .00186348,0.00007445,0.00023838,-0.01204044,0.02280969,-0.00684917,-0.
 00030220,-0.00275474,0.00291442,-0.00000743,0.00001199,-0.00053454,0.0
 0008348,-0.00001803,-0.00044700,-0.11300396,0.10915858,-0.04352597,0.0
 0091088,0.00165577,-0.00003365,0.00163369,0.00015953,0.00025249,-0.004
 20168,-0.00027805,-0.00201981,0.00037724,-0.00015500,-0.00070944,0.000
 06063,-0.00133557,-0.00092085,0.00829357,-0.01238427,0.00403262,0.1187
 3610,-0.00014739,-0.00009516,0.00003437,-0.00401509,0.00470955,-0.0015
 7135,0.00009525,0.00074231,-0.00113569,-0.00003380,-0.00001731,-0.0000
 5381,-0.00001591,0.00002999,-0.00002286,0.10699142,-0.25311391,0.06743
 001,-0.00025086,-0.00048609,0.00003351,0.00021267,0.00127194,0.0000971
 5,-0.00094163,0.00051550,-0.00020563,0.00002763,0.00063780,0.00006505,
 -0.00005730,0.00053073,0.00002575,0.01413675,-0.02168273,0.00972466,-0
 .11236194,0.26957874,-0.00023345,-0.00104290,0.00024768,-0.00197819,0.
 00340011,0.00183657,-0.00060350,0.00718494,-0.00697576,-0.00032240,-0.
 00007693,-0.00021300,0.00008677,0.00011957,0.00015980,-0.04409537,0.07
 787630,-0.05587556,-0.00130064,-0.00385364,0.00024926,-0.00009442,-0.0
 0052574,0.00130832,0.00060251,-0.00088159,-0.00093116,0.00062830,0.000
 03687,0.00092744,-0.00035342,0.00274275,0.00143728,0.00294988,-0.01343
 612,0.00704854,0.04674130,-0.07228409,0.05284194,0.00216695,-0.0027848
 6,0.00172771,-0.00052312,0.00001372,0.00026178,-0.01740948,0.00361379,
 0.00290769,-0.00054235,-0.00013361,0.00031085,0.00048129,0.00028906,-0
 .00017270,-0.00016444,0.00004366,0.00027484,-0.29793436,0.03520201,0.0
 5830312,0.00002199,0.00001513,0.00017731,0.00000139,-0.00002950,0.0001
 6689,0.00098017,-0.00045162,-0.00127696,-0.00969694,0.00083478,0.00226
 415,-0.00026777,-0.00027969,-0.00001960,-0.00001297,-0.00003745,0.0000
 8198,0.32037833,0.00012891,-0.00321624,0.00207132,-0.00027743,0.000000
 27,0.00012198,-0.02804924,0.00461174,0.00452967,-0.00068311,-0.0001052
 8,0.00020567,0.00016061,0.00014182,-0.00017860,-0.00023788,0.00061878,
 0.00087606,0.03497404,-0.06152334,-0.00642872,0.00006788,0.00002811,0.
 00012668,0.00006345,-0.00001179,0.00018927,-0.00016363,0.00094732,-0.0
 0087493,0.03191744,-0.00347624,-0.00480185,0.00009181,-0.00060359,0.00
 006645,0.00007328,-0.00004014,-0.00006594,-0.03870420,0.06603920,0.002
 01645,0.00245843,0.00649232,-0.00125159,0.00002317,0.00115044,0.012408
 36,0.00076166,-0.00179915,0.00131459,-0.00017657,-0.00043327,0.0002849
 4,0.00011927,-0.00010614,-0.00084266,0.00050616,0.00123809,0.05053901,
 -0.00787003,-0.04898163,-0.00008891,0.00004144,0.00022848,-0.00006885,
 -0.00007660,0.00022262,-0.00165864,-0.00000506,-0.00389765,0.00400753,
 -0.00026790,0.00283521,-0.00064817,-0.00039910,0.00049943,0.00002643,-
 0.00003994,-0.00020869,-0.06523700,0.00557697,0.04071106,0.00302822,0.
 00018054,-0.00142411,0.00175630,0.00068767,0.00212066,0.00053095,0.000
 87344,-0.00961657,0.00027812,0.00011153,0.00022370,0.00000336,-0.00010
 262,-0.00023343,0.01667779,-0.00362503,0.01535220,-0.00123977,-0.00626
 380,0.00138326,-0.00001617,0.00022656,-0.00020129,-0.00029766,-0.00113
 198,0.00030421,0.00001023,0.00002363,0.00035665,-0.00988557,0.00367837
 ,0.00557506,-0.15461829,0.08742015,-0.04078488,0.00015676,-0.00429537,
 -0.00358800,-0.00009615,-0.00018034,-0.00046410,0.62794159,-0.00353024
 ,0.00062827,0.00223713,-0.00354725,-0.00000128,0.00067147,0.00215265,-
 0.01314136,0.02511980,-0.00063668,0.00013371,0.00006984,-0.00076825,-0
 .00003731,-0.00017051,-0.00247957,-0.06247895,-0.02581510,0.00050158,0
 .02027280,-0.00030880,0.00044963,-0.00026632,0.00014209,-0.00038929,-0
 .00017403,0.00018768,-0.00104357,-0.00008742,-0.00274174,0.00404654,-0
 .01950574,-0.01940649,0.11353044,-0.32062910,0.06410134,-0.00335261,-0
 .00263993,0.00064451,0.00030092,0.00028367,-0.00019378,-0.02048363,0.7
 0467353,0.00339720,-0.00045404,-0.00199907,0.00483199,-0.00110187,-0.0
 0223550,0.00540091,0.02032394,-0.03354542,0.00065466,-0.00010711,0.000
 02435,0.00051697,0.00024002,0.00037077,0.01136674,0.02331321,0.0381193
 6,-0.00422464,-0.04906768,-0.00915055,0.00043576,-0.00010318,-0.000257
 67,0.00113846,0.00041461,-0.00064689,0.00133774,0.00030407,0.00288594,
 -0.00979029,0.02410190,0.04631519,-0.04385550,0.01285383,-0.06435240,-
 0.00118538,-0.00166134,0.00242908,-0.00033718,-0.00049534,0.00030591,0
 .11803041,0.00333417,0.10351218,-0.00050967,-0.00008365,-0.00035346,0.
 00226492,-0.00231968,-0.00176361,-0.00021837,-0.00004969,-0.00045308,0
 .00000392,-0.00000650,-0.00020545,-0.00001612,-0.00000137,-0.00010128,
 -0.01406028,0.00170887,-0.00381553,-0.00036465,-0.00024655,-0.00002269
 ,-0.00038142,-0.00011492,-0.00031127,0.00046775,0.00031447,0.00010810,
 -0.00000071,-0.00004737,-0.00003616,-0.00012615,0.00031216,0.00000360,
 -0.30100671,0.01630366,-0.07932037,0.00069163,0.00001597,0.00152747,0.
 00024026,-0.00002065,0.00006381,-0.00939509,0.00049410,-0.00339848,0.3
 2037819,-0.00005318,-0.00003599,0.00009059,-0.00000286,-0.00385951,-0.
 00064105,-0.00004252,0.00040967,-0.00054000,0.00008615,0.00000630,-0.0
 0013023,0.00002677,0.00000867,-0.00016309,-0.03032343,0.00219266,-0.00
 704718,0.00015424,-0.00037908,0.00009272,-0.00097917,-0.00012642,-0.00
 033051,0.00015687,0.00013255,0.00013379,0.00004152,-0.00002930,0.00002
 830,-0.00019771,0.00033276,0.00041209,0.01697680,-0.05800272,0.0058458
 0,-0.00008117,0.00093000,0.00011390,-0.00001114,0.00009305,-0.00007349
 ,0.03086626,-0.00130120,0.00738296,-0.01781935,0.06298931,0.00129791,0
 .00028915,0.00110514,-0.00144130,-0.00101391,0.00644906,0.00072860,-0.
 00010495,0.00068991,0.00010853,-0.00002728,0.00031750,0.00007403,0.000
 01025,0.00015242,-0.00785717,-0.00060609,0.00040499,0.00057404,0.00018
 110,0.00045611,-0.00099459,0.00013698,-0.00028976,-0.00044045,-0.00023
 810,-0.00017194,-0.00000073,0.00000296,-0.00014467,0.00050395,0.000082
 94,0.00034397,-0.07606320,0.00663359,-0.06362759,0.00184767,-0.0006384
 2,-0.00366150,0.00002286,-0.00004311,-0.00061047,-0.00826721,0.0007887
 7,0.00233731,0.08914678,-0.00673396,0.05369961,0.00020038,-0.00134571,
 -0.00069166,0.00028391,0.00035092,-0.00007280,-0.00076111,-0.00110199,
 -0.00010294,0.00025918,-0.00033976,0.00017840,-0.00009120,-0.00102363,
 0.00029171,-0.00017924,0.00067404,0.00067913,-0.00671354,0.00119344,0.
 00089808,0.00003593,-0.00004723,-0.00010366,0.00000768,0.00008314,0.00
 000064,0.00002570,0.00016059,-0.00028797,-0.32624510,0.06409152,0.0257
 4342,0.00040856,-0.00080735,0.00018570,0.00003349,-0.00005268,-0.00005
 715,0.00110320,0.00136613,0.00068954,-0.00176400,0.00016891,-0.0001485
 7,0.00013406,-0.00010329,-0.00020400,0.34462356,0.00044748,-0.00099898
 ,0.00075709,-0.00009844,0.00033997,0.00016929,-0.00006711,0.00096488,-
 0.00044000,-0.00012479,0.00035099,-0.00016637,-0.00159221,-0.00069235,
 -0.00008559,0.00027293,-0.00021673,-0.00022199,0.03040472,-0.00028749,
 -0.00199566,-0.00006866,0.00002326,-0.00011673,-0.00008421,-0.00002892
 ,0.00013507,-0.00043116,0.00014445,-0.00050229,0.05963427,-0.07001038,
 -0.00227608,-0.00008851,0.00014857,0.00008520,-0.00007234,0.00001348,0
 .00001548,0.00184441,-0.00492236,-0.00008413,0.00013025,-0.00018611,-0
 .00028772,-0.00004252,-0.00004248,0.00004121,-0.06808496,0.06820881,0.
 00011342,0.00061489,-0.00102617,0.00091891,0.00011704,0.00009529,0.000
 06993,0.00343379,-0.00825155,0.00011669,0.00009733,0.00010620,-0.00012
 910,-0.00036645,0.00049854,0.00092070,0.00406962,0.00444354,0.00483214
 ,-0.01145705,0.00153053,0.00012250,-0.00006606,-0.00011377,0.00036292,
 -0.00004234,-0.00025675,0.00021956,-0.00024553,0.00034544,0.01779306,0
 .00614033,-0.01953457,-0.00004297,-0.00684824,0.00063109,0.00024672,-0
 .00009825,-0.00031808,0.00180452,-0.00117807,0.00682376,-0.00519916,0.
 00365854,-0.01185847,-0.00002745,-0.00024195,0.00019832,-0.02833241,0.
 00425137,0.02770854,-0.00032413,0.00016734,-0.00031699,0.00006271,-0.0
 0009165,-0.00008866,0.00004551,0.00261792,0.00009505,0.00021724,-0.000
 31929,0.00013200,0.00060363,-0.00024764,0.00024980,-0.00018921,0.00069
 363,0.00106744,0.00763942,0.00914931,-0.00343780,0.00005427,-0.0000282
 5,0.00006140,0.00007587,0.00003796,-0.00007539,0.00032742,0.00053244,0
 .00025431,-0.16214234,-0.13038596,0.04756706,0.00032434,-0.00111782,-0
 .00005948,0.00006507,-0.00001046,-0.00005000,0.00116411,-0.00042220,-0
 .00129925,-0.00020638,0.00149601,-0.00135645,0.00000512,-0.00001921,-0
 .00002450,-0.01310838,-0.02165421,0.00685362,0.16491968,0.00069213,0.0
 0003199,0.00003496,0.00001203,-0.00000146,-0.00005483,0.00345103,-0.00
 365142,-0.00155906,-0.00011586,0.00004649,-0.00002876,-0.00007819,0.00
 027338,-0.00009060,0.00015886,0.00006512,-0.00026336,-0.02102595,-0.01
 848940,0.00963347,-0.00001012,-0.00000172,0.00000636,-0.00002856,0.000
 01158,0.00004396,-0.00078115,-0.00122566,0.00047117,-0.12743508,-0.210
 49746,0.04986712,-0.00005914,-0.00001360,0.00005246,-0.00002416,0.0000
 1158,-0.00001185,0.00028420,0.00118634,-0.00031544,0.00049407,0.000171
 69,-0.00037549,0.00003512,-0.00002011,-0.00001116,0.00474620,0.0064790
 1,-0.00198148,0.13965437,0.22521614,0.00051454,-0.00039380,0.00031572,
 -0.00018402,0.00003555,-0.00000585,0.00250700,0.00152635,0.00337739,0.
 00002361,-0.00017061,0.00005205,0.00018710,0.00049420,-0.00001373,-0.0
 0038906,0.00091181,0.00141310,-0.00350942,-0.00814507,0.00311991,0.000
 06327,-0.00002990,0.00001962,0.00002668,0.00005479,0.00000662,0.000402
 75,0.00024751,0.00050024,0.04899656,0.05831373,-0.04098028,0.00038936,
 -0.00139469,-0.00017401,0.00001262,-0.00001929,-0.00012862,-0.00137904
 ,0.00013386,-0.00450749,0.00252433,0.00317163,-0.00209017,-0.00007263,
 0.00004511,-0.00007704,0.00028596,0.00106214,0.00011293,-0.04999149,-0
 .05560119,0.03935878,0.00012162,0.00016286,0.00019380,0.00054145,-0.00
 122374,0.00037515,-0.00032953,0.00041791,-0.00028229,0.00003866,-0.000
 10954,0.00007962,0.00005121,0.00014845,0.00006577,-0.00056503,-0.00113
 435,0.00036181,0.00048129,-0.00026744,-0.00021146,0.00025624,-0.000275
 16,-0.00009949,0.00001378,-0.00049020,-0.00011599,0.00002728,-0.000031
 88,0.00005231,-0.00166066,0.00012159,0.00025188,-0.00864935,0.00054241
 ,-0.00202624,0.00001399,0.00015289,0.00019369,0.00012890,-0.00010532,0
 .00018825,-0.33055745,0.04118747,-0.04464091,0.00120382,0.00150721,-0.
 00081791,0.00164426,-0.00018833,-0.00069432,0.00024276,0.00007032,0.00
 001977,0.34824752,-0.00018687,-0.00001528,-0.00011027,0.00043544,-0.00
 102577,-0.00086642,0.00011967,-0.00045360,0.00053141,-0.00009253,0.000
 07939,0.00004065,-0.00014965,0.00001117,-0.00020549,-0.00004810,0.0006
 7571,-0.00047919,0.00007120,0.00064002,-0.00016621,-0.00014310,0.00031
 741,0.00022364,-0.00121314,-0.00053687,0.00036551,-0.00008978,0.000017
 76,-0.00004215,0.00039811,-0.00064757,-0.00063110,0.03006081,0.0026841
 8,0.00389601,-0.00040444,0.00025399,0.00040959,-0.00003828,-0.00002785
 ,0.,0.03741549,-0.06350828,0.00575479,0.00144752,-0.00443705,0.0012507
 9,-0.00003228,0.00065934,0.00022654,-0.00007674,0.00007910,0.00001063,
 -0.04427216,0.05936126,-0.00044657,-0.00066355,0.00050141,-0.00068711,
 -0.00037259,-0.00030264,-0.00074364,-0.00296577,0.00337390,-0.00022616
 ,0.00007480,-0.00008321,-0.00034628,0.00019213,-0.00022332,0.00042629,
 -0.00383723,-0.00793902,0.00013747,0.00532440,0.00037410,-0.00004269,-
 0.00014562,0.00004122,0.00034729,0.00049805,0.00029249,-0.00023969,0.0
 0000963,-0.00044130,0.00579891,-0.00350983,-0.00987536,-0.00898367,0.0
 1026884,0.00120865,-0.00006000,0.00016812,0.00002899,0.00005502,0.0002
 0124,0.00011583,-0.03595774,-0.00110567,-0.02820224,-0.00272072,0.0023
 2957,0.00682593,0.00120123,-0.00029171,-0.00071065,-0.00003514,-0.0000
 1943,-0.00075026,0.04848939,-0.00775230,0.03453759,-0.00004371,-0.0000
 0331,0.00008410,-0.00023076,0.00002919,0.00026128,-0.00023426,0.000788
 71,-0.00110372,0.00007572,-0.00007568,-0.00003198,0.00013274,0.0000280
 7,0.00013758,0.00007617,0.00293442,-0.00109333,0.00029831,-0.00118656,
 0.00025049,0.00023005,-0.00025363,-0.00013963,0.00052225,-0.00008691,-
 0.00028352,0.00008110,0.00000325,0.00008817,-0.00009738,0.00209254,0.0
 0150246,0.00882183,0.01015659,0.00289920,0.00037563,0.00058730,-0.0001
 3535,-0.00001901,0.00000048,0.00002026,-0.14230679,-0.12809716,-0.0381
 7347,0.00068949,-0.00018281,0.00180669,0.00010264,-0.00013661,0.000050
 71,0.00022330,-0.00004012,-0.00042792,-0.01125077,-0.02320116,-0.00596
 619,0.14255346,0.00003408,-0.00003528,0.00004070,0.00056595,0.00009147
 ,-0.00002888,0.00012610,0.00026927,0.00013467,-0.00001953,-0.00000101,
 -0.00002273,-0.00002191,0.00001137,-0.00004751,0.00324231,-0.00328621,
 0.00232697,0.00003703,-0.00019060,-0.00004618,-0.00010831,0.00005674,0
 .00001522,-0.00005733,0.00019629,0.00003929,0.00000111,0.00001330,0.00
 004236,0.00019696,0.00026805,0.00023604,-0.01795822,-0.01884630,-0.007
 95041,-0.00072096,-0.00115033,-0.00036522,0.00002867,-0.00002347,0.000
 01494,-0.12602517,-0.24220663,-0.04436972,0.00012039,0.00113889,-0.000
 00075,0.00010399,0.00005308,-0.00008404,0.00002444,0.00032840,-0.00025
 274,0.00378700,0.00587292,0.00159691,0.13664339,0.25744005,0.00022489,
 0.00018270,-0.00009404,-0.00034766,0.00033489,0.00022778,0.00038858,-0
 .00089865,0.00067325,-0.00005125,0.00005001,0.00002182,-0.00009093,-0.
 00010297,-0.00000220,-0.00329424,0.00035426,0.00406477,-0.00037270,0.0
 0080293,-0.00019305,0.00001962,0.00009474,0.00006478,-0.00011145,-0.00
 036619,0.00009786,-0.00000635,-0.00000962,-0.00013000,-0.00198446,-0.0
 0332803,-0.00245060,0.00479745,0.01130558,0.00560848,-0.00002683,0.000
 15204,-0.00020253,0.00006377,-0.00003261,-0.00007867,-0.04013401,-0.05
 438486,-0.04196171,0.00175242,-0.00057340,-0.00439729,-0.00015264,-0.0
 0004858,-0.00042416,0.00045446,0.00020313,0.00045109,-0.00138281,-0.00
 245641,0.00122788,0.04025415,0.04872105,0.03749654\\0.00006757,0.00047
 185,-0.00000155,-0.00006797,-0.00059921,0.00000223,0.00000084,0.000129
 34,-0.00000317,0.00000027,0.00000017,-0.00000009,-0.00000012,-0.000000
 12,-0.00000040,0.00000117,0.00000007,0.00000118,-0.00000066,-0.0000013
 5,-0.00000241,-0.00000002,0.00000039,0.00000024,0.00000027,-0.00000002
 ,0.00000015,0.,0.00000016,-0.00000024,-0.00000002,0.00000068,-0.000000
 03,-0.00000122,-0.00000148,0.00000438,0.00000006,0.00000016,-0.0000001
 3,0.00000004,-0.00000005,0.00000023,-0.00000008,0.00000020,-0.00000143
 ,0.00000007,-0.00000007,-0.00000004,-0.00000002,-0.00000050,-0.0000003
 9,-0.00000007,-0.00000012,-0.00000034,0.00000006,-0.00000001,0.0000011
 8,-0.00000020,-0.00000010,0.00000063\\\@


 TO DETECT ERRORS, THE PROGRAMMER MUST HAVE A CONNIVING MIND,
 ONE THAT DELIGHTS IN UNCOVERING FLAWS WHERE BEAUTY AND
 PERFECTION WERE ONCE THOUGHT TO LIE.

             -- THE PSYCHOLOGY OF COMPUTER PROGRAMMING
                GERALD M. WEINBERG
 Job cpu time:       0 days  1 hours 51 minutes 19.3 seconds.
 Elapsed time:       0 days  0 hours  9 minutes 17.7 seconds.
 File lengths (MBytes):  RWF=    162 Int=      0 D2E=      0 Chk=     32 Scr=      1
 Normal termination of Gaussian 16 at Fri Jun 10 04:23:03 2022.
