 Entering Gaussian System, Link 0=g16
 Input=int_zmat_field_N100.gjf
 Output=int_zmat_field_N100.out
 Initial command:
 /software/gaussian/g16-a03/l1.exe "/local_scratch/9923054/Gau-20279.inp" -scrdir="/local_scratch/9923054/"
 Entering Link 1 = /software/gaussian/g16-a03/l1.exe PID=     20280.
  
 Copyright (c) 1988,1990,1992,1993,1995,1998,2003,2009,2016,
            Gaussian, Inc.  All Rights Reserved.
  
 This is part of the Gaussian(R) 16 program.  It is based on
 the Gaussian(R) 09 system (copyright 2009, Gaussian, Inc.),
 the Gaussian(R) 03 system (copyright 2003, Gaussian, Inc.),
 the Gaussian(R) 98 system (copyright 1998, Gaussian, Inc.),
 the Gaussian(R) 94 system (copyright 1995, Gaussian, Inc.),
 the Gaussian 92(TM) system (copyright 1992, Gaussian, Inc.),
 the Gaussian 90(TM) system (copyright 1990, Gaussian, Inc.),
 the Gaussian 88(TM) system (copyright 1988, Gaussian, Inc.),
 the Gaussian 86(TM) system (copyright 1986, Carnegie Mellon
 University), and the Gaussian 82(TM) system (copyright 1983,
 Carnegie Mellon University). Gaussian is a federally registered
 trademark of Gaussian, Inc.
  
 This software contains proprietary and confidential information,
 including trade secrets, belonging to Gaussian, Inc.
  
 This software is provided under written license and may be
 used, copied, transmitted, or stored only in accord with that
 written license.
  
 The following legend is applicable only to US Government
 contracts under FAR:
  
                    RESTRICTED RIGHTS LEGEND
  
 Use, reproduction and disclosure by the US Government is
 subject to restrictions as set forth in subparagraphs (a)
 and (c) of the Commercial Computer Software - Restricted
 Rights clause in FAR 52.227-19.
  
 Gaussian, Inc.
 340 Quinnipiac St., Bldg. 40, Wallingford CT 06492
  
  
 ---------------------------------------------------------------
 Warning -- This program may not be used in any manner that
 competes with the business of Gaussian, Inc. or will provide
 assistance to any competitor of Gaussian, Inc.  The licensee
 of this program is prohibited from giving any competitor of
 Gaussian, Inc. access to this program.  By using this program,
 the user acknowledges that Gaussian, Inc. is engaged in the
 business of creating and licensing software in the field of
 computational chemistry and represents and warrants to the
 licensee that it is not a competitor of Gaussian, Inc. and that
 it will not use this program in any manner prohibited above.
 ---------------------------------------------------------------
  

 Cite this work as:
 Gaussian 16, Revision A.03,
 M. J. Frisch, G. W. Trucks, H. B. Schlegel, G. E. Scuseria, 
 M. A. Robb, J. R. Cheeseman, G. Scalmani, V. Barone, 
 G. A. Petersson, H. Nakatsuji, X. Li, M. Caricato, A. V. Marenich, 
 J. Bloino, B. G. Janesko, R. Gomperts, B. Mennucci, H. P. Hratchian, 
 J. V. Ortiz, A. F. Izmaylov, J. L. Sonnenberg, D. Williams-Young, 
 F. Ding, F. Lipparini, F. Egidi, J. Goings, B. Peng, A. Petrone, 
 T. Henderson, D. Ranasinghe, V. G. Zakrzewski, J. Gao, N. Rega, 
 G. Zheng, W. Liang, M. Hada, M. Ehara, K. Toyota, R. Fukuda, 
 J. Hasegawa, M. Ishida, T. Nakajima, Y. Honda, O. Kitao, H. Nakai, 
 T. Vreven, K. Throssell, J. A. Montgomery, Jr., J. E. Peralta, 
 F. Ogliaro, M. J. Bearpark, J. J. Heyd, E. N. Brothers, K. N. Kudin, 
 V. N. Staroverov, T. A. Keith, R. Kobayashi, J. Normand, 
 K. Raghavachari, A. P. Rendell, J. C. Burant, S. S. Iyengar, 
 J. Tomasi, M. Cossi, J. M. Millam, M. Klene, C. Adamo, R. Cammi, 
 J. W. Ochterski, R. L. Martin, K. Morokuma, O. Farkas, 
 J. B. Foresman, and D. J. Fox, Gaussian, Inc., Wallingford CT, 2016.
 
 ******************************************
 Gaussian 16:  ES64L-G16RevA.03 25-Dec-2016
                21-Mar-2022 
 ******************************************
 %nprocshared=12
 Will use up to   12 processors via shared memory.
 %chk=checkpoint.chk
 %mem=12GB
 ----------------------------------------------------------------------
 # Opt=(Z-matrix, MaxStep=10) B3LYP/Def2TZVP geom=allcheckpoint guess=r
 ead Field=read NoSymm
 ----------------------------------------------------------------------
 1/8=10,10=7,18=40,26=3,29=7,38=1/1,3;
 2/12=2,15=1,29=3,40=1/2;
 3/5=44,7=101,11=2,14=-6,25=1,30=1,71=1,74=-5,116=-2/1,2,3;
 4/5=1/1;
 5/5=2,38=6/2;
 6/7=2,8=2,9=2,10=2,28=1/1;
 7/29=1,30=1/1,2,3,16;
 1/8=10,10=7,18=40,26=3/3(2);
 2/15=1,29=3/2;
 99//99;
 2/15=1,29=3/2;
 3/5=44,7=101,11=2,14=-2,25=1,30=1,71=1,74=-5/1,2,3;
 4/5=5,16=3,69=1/1;
 5/5=2,38=5/2;
 7/30=1/1,2,3,16;
 1/8=10,18=40,26=3/3(-5);
 2/15=1,29=3/2;
 6/7=2,8=2,9=2,10=2,19=2,28=1/1;
 99/9=1/99;
 Structure from the checkpoint file:  "checkpoint.chk"
 ------------------
 int_zmat_initalOpt
 ------------------
 Charge =  0 Multiplicity = 1
 Z-Matrix found in chk file.
 H
 C,1,R2
 C,2,R3,1,A3
 C,2,R4,1,A4,3,D4,0
 H,3,R5,2,A5,1,D5,0
 O,3,R6,2,A6,5,D6,0
 C,4,R7,2,A7,1,D7,0
 H,4,R8,2,A8,7,D8,0
 C,6,R9,3,A9,2,D9,0
 H,7,R10,4,A10,2,D10,0
 H,9,R11,6,A11,3,D11,0
 H,9,R12,6,A12,11,D12,0
      Variables:
 R2=1.08009983
 R3=1.340813
 R4=1.45501284
 R5=1.08264669
 R6=1.35410494
 R7=1.33557593
 R8=1.08243042
 R9=1.44568865
 R10=1.08179481
 R11=1.08885274
 R12=1.10411651
 A3=119.63534818
 A4=121.29781811
 A5=124.28183033
 A6=123.56813445
 A7=119.1876411
 A8=119.27504941
 A9=115.58094767
 A10=122.59090848
 A11=105.3897573
 A12=107.28214482
 D4=168.3954518
 D5=2.09492087
 D6=174.1539712
 D7=176.34617198
 D8=174.40939866
 D9=21.0728735
 D10=173.70061267
 D11=-162.39275035
 D12=-115.09019517
 Recover connectivity data from disk.

 GradGradGradGradGradGradGradGradGradGradGradGradGradGradGradGradGradGrad
 Berny optimization.
 Initialization pass.
                       ----------------------------
                       !    Initial Parameters    !
                       ! (Angstroms and Degrees)  !
 ----------------------                            ----------------------
 !      Name          Value   Derivative information (Atomic Units)     !
 ------------------------------------------------------------------------
 !       R2          1.0801   estimate D2E/DX2                          !
 !       R3          1.3408   estimate D2E/DX2                          !
 !       R4          1.455    estimate D2E/DX2                          !
 !       R5          1.0826   estimate D2E/DX2                          !
 !       R6          1.3541   estimate D2E/DX2                          !
 !       R7          1.3356   estimate D2E/DX2                          !
 !       R8          1.0824   estimate D2E/DX2                          !
 !       R9          1.4457   estimate D2E/DX2                          !
 !       R10         1.0818   estimate D2E/DX2                          !
 !       R11         1.0889   estimate D2E/DX2                          !
 !       R12         1.1041   estimate D2E/DX2                          !
 !       A3        119.6353   estimate D2E/DX2                          !
 !       A4        121.2978   estimate D2E/DX2                          !
 !       A5        124.2818   estimate D2E/DX2                          !
 !       A6        123.5681   estimate D2E/DX2                          !
 !       A7        119.1876   estimate D2E/DX2                          !
 !       A8        119.275    estimate D2E/DX2                          !
 !       A9        115.5809   estimate D2E/DX2                          !
 !       A10       122.5909   estimate D2E/DX2                          !
 !       A11       105.3898   estimate D2E/DX2                          !
 !       A12       107.2821   estimate D2E/DX2                          !
 !       D4        168.3955   estimate D2E/DX2                          !
 !       D5          2.0949   estimate D2E/DX2                          !
 !       D6        174.154    estimate D2E/DX2                          !
 !       D7        176.3462   estimate D2E/DX2                          !
 !       D8        174.4094   estimate D2E/DX2                          !
 !       D9         21.0729   estimate D2E/DX2                          !
 !       D10       173.7006   estimate D2E/DX2                          !
 !       D11      -162.3928   estimate D2E/DX2                          !
 !       D12      -115.0902   estimate D2E/DX2                          !
 ------------------------------------------------------------------------
 Trust Radius=1.00D-01 FncErr=1.00D-07 GrdErr=1.00D-06 EigMax=2.50D+02 EigMin=1.00D-04
 Number of steps in this run=     40 maximum allowed number of steps=    100.
 GradGradGradGradGradGradGradGradGradGradGradGradGradGradGradGradGradGrad

 ---------------------------------------------------------------------------------------------------
                            Z-MATRIX (ANGSTROMS AND DEGREES)
   CD    Cent   Atom    N1       Length/X        N2       Alpha/Y        N3        Beta/Z          J
 ---------------------------------------------------------------------------------------------------
      1      1  H 
      2      2  C        1   1.080100(     1)
      3      3  C        2   1.340813(     2)      1  119.635(    12)
      4      4  C        2   1.455013(     3)      1  121.298(    13)      3  168.395(    22)      0
      5      5  H        3   1.082647(     4)      2  124.282(    14)      1    2.095(    23)      0
      6      6  O        3   1.354105(     5)      2  123.568(    15)      5  174.154(    24)      0
      7      7  C        4   1.335576(     6)      2  119.188(    16)      1  176.346(    25)      0
      8      8  H        4   1.082430(     7)      2  119.275(    17)      7  174.409(    26)      0
      9      9  C        6   1.445689(     8)      3  115.581(    18)      2   21.073(    27)      0
     10     10  H        7   1.081795(     9)      4  122.591(    19)      2  173.701(    28)      0
     11     11  H        9   1.088853(    10)      6  105.390(    20)      3 -162.393(    29)      0
     12     12  H        9   1.104117(    11)      6  107.282(    21)     11 -115.090(    30)      0
 ---------------------------------------------------------------------------------------------------
                         Z-Matrix orientation:                         
 ---------------------------------------------------------------------
 Center     Atomic      Atomic             Coordinates (Angstroms)
 Number     Number       Type             X           Y           Z
 ---------------------------------------------------------------------
      1          1           0        0.000000    0.000000    0.000000
      2          6           0        0.000000    0.000000    1.080100
      3          6           0        1.165421    0.000000    1.743103
      4          6           0       -1.217864    0.250092    1.835959
      5          1           0        2.137515    0.032701    1.267615
      6          8           0        1.259489    0.073815    3.091918
      7          6           0       -1.185845    0.167660    3.168604
      8          1           0       -2.104618    0.587035    1.314622
      9          6           0        0.074493   -0.315989    3.822569
     10          1           0       -2.029265    0.438394    3.789592
     11          1           0        0.203080    0.095544    4.822422
     12          1           0        0.084364   -1.417342    3.900012
 ---------------------------------------------------------------------
                    Distance matrix (angstroms):
                    1          2          3          4          5
     1  H    0.000000
     2  C    1.080100   0.000000
     3  C    2.096810   1.340813   0.000000
     4  C    2.217315   1.455013   2.398169   0.000000
     5  H    2.485335   2.145973   1.082647   3.410109   0.000000
     6  O    3.339419   2.374695   1.354105   2.783125   2.025019
     7  C    3.387387   2.407528   2.754745   1.335576   3.831017
     8  H    2.549953   2.197505   3.349830   1.082430   4.278456
     9  C    3.836331   2.761619   2.369421   2.436648   3.302338
    10  H    4.321008   3.413423   3.819205   2.123796   4.887434
    11  H    4.827642   3.749046   3.227606   3.310880   4.047548
    12  H    4.150430   3.157195   2.798178   2.955748   3.639721
                    6          7          8          9         10
     6  O    0.000000
     7  C    2.448336   0.000000
     8  H    3.839192   2.111225   0.000000
     9  C    1.445689   1.500012   3.442931   0.000000
    10  H    3.381652   1.081795   2.480574   2.235168   0.000000
    11  H    2.027590   2.160885   4.227493   1.088853   2.483475
    12  H    2.063367   2.158847   3.936167   1.104117   2.814849
                   11         12
    11  H    0.000000
    12  H    1.775882   0.000000
 Symmetry turned off by external request.
 Stoichiometry    C5H6O
 Framework group  C1[X(C5H6O)]
 Deg. of freedom    30
 Full point group                 C1      NOp   1
 Rotational constants (GHZ):           5.5814591           5.3669124           2.8513671
 Standard basis: def2TZVP (5D, 7F)
 The following finite field(s) will be applied:
 An electric field of              0.0053 -0.0085 -0.0003
   222 basis functions,   354 primitive gaussians,   252 cartesian basis functions
    22 alpha electrons       22 beta electrons
       nuclear repulsion energy       223.5158520064 Hartrees.
 NAtoms=   12 NActive=   12 NUniq=   12 SFac= 1.00D+00 NAtFMM=   60 NAOKFM=F Big=F
 Integral buffers will be    131072 words long.
 Raffenetti 2 integral format.
 Two-electron integral symmetry is turned off.
 One-electron integrals computed using PRISM.
   1 Symmetry operations used in ECPInt.
 ECPInt:  NShTT=    4095 NPrTT=   12396 LenC2=    4075 LenP2D=   10418.
 LDataN:  DoStor=T MaxTD1= 6 Len=  172
 NBasis=   222 RedAO= T EigKep=  9.80D-05  NBF=   222
 NBsUse=   222 1.00D-06 EigRej= -1.00D+00 NBFU=   222
 The nuclear repulsion energy is now       223.4462661781 hartrees.
 Initial guess from the checkpoint file:  "checkpoint.chk"
 B after Tr=    -0.000000   -0.000000    0.000000
         Rot=    1.000000    0.000000   -0.000000    0.000000 Ang=   0.00 deg.
 Keep R1 ints in memory in canonical form, NReq=319363885.
 Requested convergence on RMS density matrix=1.00D-08 within 128 cycles.
 Requested convergence on MAX density matrix=1.00D-06.
 Requested convergence on             energy=1.00D-06.
 No special actions if energy rises.
 SCF Done:  E(RB3LYP) =  -269.425827464     A.U. after   11 cycles
            NFock= 11  Conv=0.16D-08     -V/T= 2.0050

 **********************************************************************

            Population analysis using the SCF density.

 **********************************************************************

 Alpha  occ. eigenvalues --  -19.16380 -10.23468 -10.23266 -10.16963 -10.16698
 Alpha  occ. eigenvalues --  -10.16490  -1.07232  -0.80916  -0.77509  -0.66366
 Alpha  occ. eigenvalues --   -0.62437  -0.53220  -0.50956  -0.48437  -0.46245
 Alpha  occ. eigenvalues --   -0.43442  -0.40701  -0.37590  -0.36043  -0.32935
 Alpha  occ. eigenvalues --   -0.29889  -0.20891
 Alpha virt. eigenvalues --   -0.03006   0.03862   0.05255   0.07701   0.07933
 Alpha virt. eigenvalues --    0.09455   0.09792   0.11795   0.14191   0.16368
 Alpha virt. eigenvalues --    0.17569   0.19218   0.21275   0.22340   0.23475
 Alpha virt. eigenvalues --    0.25006   0.26220   0.27750   0.28536   0.29875
 Alpha virt. eigenvalues --    0.30786   0.33598   0.35058   0.36387   0.37562
 Alpha virt. eigenvalues --    0.38240   0.39458   0.40747   0.41257   0.44401
 Alpha virt. eigenvalues --    0.44497   0.45875   0.46881   0.49336   0.50913
 Alpha virt. eigenvalues --    0.53398   0.55490   0.57970   0.59731   0.63045
 Alpha virt. eigenvalues --    0.65325   0.66676   0.69039   0.72151   0.73971
 Alpha virt. eigenvalues --    0.77808   0.82325   0.85217   0.85557   0.89446
 Alpha virt. eigenvalues --    0.91038   0.93278   0.96002   0.97300   0.99784
 Alpha virt. eigenvalues --    1.05687   1.07429   1.09149   1.11485   1.12571
 Alpha virt. eigenvalues --    1.15612   1.18256   1.20234   1.23883   1.26698
 Alpha virt. eigenvalues --    1.30699   1.33555   1.37073   1.40294   1.43032
 Alpha virt. eigenvalues --    1.45129   1.45776   1.48987   1.51665   1.52884
 Alpha virt. eigenvalues --    1.56138   1.59851   1.63068   1.65371   1.67865
 Alpha virt. eigenvalues --    1.70138   1.72709   1.74846   1.77972   1.80271
 Alpha virt. eigenvalues --    1.85766   1.87316   1.90624   1.91750   1.97156
 Alpha virt. eigenvalues --    2.00032   2.01017   2.05835   2.10478   2.12950
 Alpha virt. eigenvalues --    2.15564   2.17793   2.21208   2.23361   2.26583
 Alpha virt. eigenvalues --    2.27715   2.36551   2.38080   2.45563   2.46116
 Alpha virt. eigenvalues --    2.51410   2.52032   2.53003   2.57811   2.59779
 Alpha virt. eigenvalues --    2.61523   2.62397   2.65946   2.68125   2.70989
 Alpha virt. eigenvalues --    2.72596   2.74455   2.77484   2.79294   2.81084
 Alpha virt. eigenvalues --    2.83657   2.84596   2.88164   2.88724   2.90791
 Alpha virt. eigenvalues --    2.94041   2.97974   3.01880   3.02378   3.07886
 Alpha virt. eigenvalues --    3.08262   3.11690   3.13153   3.15836   3.16650
 Alpha virt. eigenvalues --    3.19032   3.20167   3.23062   3.24799   3.25413
 Alpha virt. eigenvalues --    3.29108   3.29735   3.32919   3.36360   3.39065
 Alpha virt. eigenvalues --    3.40562   3.40885   3.45166   3.46400   3.48739
 Alpha virt. eigenvalues --    3.54759   3.58883   3.62461   3.67783   3.69856
 Alpha virt. eigenvalues --    3.78517   3.83824   3.88423   3.91333   3.94255
 Alpha virt. eigenvalues --    3.97869   4.03690   4.04965   4.12434   4.17351
 Alpha virt. eigenvalues --    4.20480   4.25416   4.28938   4.36885   4.40192
 Alpha virt. eigenvalues --    4.45660   4.52817   4.58441   4.63529   4.66731
 Alpha virt. eigenvalues --    4.68144   4.79406   4.84331   4.91249   4.95105
 Alpha virt. eigenvalues --    5.12948   5.18241   5.36058   5.45033   5.74645
 Alpha virt. eigenvalues --    5.85061   5.89759   6.23269   6.32433   6.65272
 Alpha virt. eigenvalues --    6.76257   6.86360   7.14726   7.25080  22.06712
 Alpha virt. eigenvalues --   22.31848  22.42519  22.74923  22.92657  44.04560
          Condensed to atoms (all electrons):
               1          2          3          4          5          6
     1  H    0.553056   0.397090  -0.032463  -0.034175  -0.004618   0.005470
     2  C    0.397090   5.092137   0.587971   0.377546  -0.075861  -0.072900
     3  C   -0.032463   0.587971   4.776861  -0.059618   0.431081   0.324366
     4  C   -0.034175   0.377546  -0.059618   4.824047   0.006914  -0.010755
     5  H   -0.004618  -0.075861   0.431081   0.006914   0.588851  -0.042855
     6  O    0.005470  -0.072900   0.324366  -0.010755  -0.042855   7.924134
     7  C    0.005035  -0.063371  -0.031548   0.662461  -0.001766  -0.031471
     8  H   -0.004023  -0.045158   0.004277   0.414883  -0.000266  -0.000902
     9  C   -0.000177  -0.037285  -0.062380  -0.044757   0.003921   0.286339
    10  H   -0.000197   0.004485   0.002221  -0.021718   0.000153   0.002987
    11  H    0.000133   0.004329  -0.002005   0.000689  -0.000624  -0.028002
    12  H   -0.000382   0.000052   0.042183  -0.009970   0.002414  -0.078523
               7          8          9         10         11         12
     1  H    0.005035  -0.004023  -0.000177  -0.000197   0.000133  -0.000382
     2  C   -0.063371  -0.045158  -0.037285   0.004485   0.004329   0.000052
     3  C   -0.031548   0.004277  -0.062380   0.002221  -0.002005   0.042183
     4  C    0.662461   0.414883  -0.044757  -0.021718   0.000689  -0.009970
     5  H   -0.001766  -0.000266   0.003921   0.000153  -0.000624   0.002414
     6  O   -0.031471  -0.000902   0.286339   0.002987  -0.028002  -0.078523
     7  C    5.004330  -0.024439   0.373530   0.400082  -0.029414  -0.084972
     8  H   -0.024439   0.500668   0.007226  -0.005995  -0.000262  -0.000168
     9  C    0.373530   0.007226   4.707056  -0.040404   0.419162   0.336211
    10  H    0.400082  -0.005995  -0.040404   0.505915  -0.004890   0.007774
    11  H   -0.029414  -0.000262   0.419162  -0.004890   0.583073  -0.067557
    12  H   -0.084972  -0.000168   0.336211   0.007774  -0.067557   0.829640
 Mulliken charges:
               1
     1  H    0.115251
     2  C   -0.169036
     3  C    0.019053
     4  C   -0.105546
     5  H    0.092654
     6  O   -0.277888
     7  C   -0.178459
     8  H    0.154159
     9  C    0.051559
    10  H    0.149587
    11  H    0.125369
    12  H    0.023298
 Sum of Mulliken charges =  -0.00000
 Mulliken charges with hydrogens summed into heavy atoms:
               1
     2  C   -0.053785
     3  C    0.111708
     4  C    0.048613
     6  O   -0.277888
     7  C   -0.028872
     9  C    0.200225
 Electronic spatial extent (au):  <R**2>=           1439.0089
 Charge=             -0.0000 electrons
 Dipole moment (field-independent basis, Debye):
    X=             -1.6114    Y=              0.8329    Z=              0.0174  Tot=              1.8140
 Quadrupole moment (field-independent basis, Debye-Ang):
   XX=            -34.7454   YY=            -38.4057   ZZ=            -31.7417
   XY=             -1.2114   XZ=             -5.8377   YZ=              1.3468
 Traceless Quadrupole moment (field-independent basis, Debye-Ang):
   XX=              0.2188   YY=             -3.4414   ZZ=              3.2226
   XY=             -1.2114   XZ=             -5.8377   YZ=              1.3468
 Octapole moment (field-independent basis, Debye-Ang**2):
  XXX=             -4.4136  YYY=             -0.9037  ZZZ=           -233.5707  XYY=              0.1561
  XXY=              3.7019  XXZ=            -90.3975  XZZ=            -21.8360  YZZ=              3.7334
  YYZ=            -92.7480  XYZ=             -2.9719
 Hexadecapole moment (field-independent basis, Debye-Ang**3):
 XXXX=           -261.6306 YYYY=            -63.3944 ZZZZ=          -1410.7935 XXXY=              4.1823
 XXXZ=            -15.3643 YYYX=             12.5300 YYYZ=              7.8393 ZZZX=            -74.3308
 ZZZY=             28.1913 XXYY=            -58.8701 XXZZ=           -322.9617 YYZZ=           -286.5877
 XXYZ=             11.5599 YYXZ=              3.3682 ZZXY=             -5.3477
 N-N= 2.234462661781D+02 E-N=-1.074759097548D+03  KE= 2.680793329155D+02
   1 Symmetry operations used in ECPInt.
 ECPInt:  NShTT=    4095 NPrTT=   12396 LenC2=    4075 LenP2D=   10418.
 LDataN:  DoStor=T MaxTD1= 7 Len=  274
 Calling FoFJK, ICntrl=      2127 FMM=F ISym2X=0 I1Cent= 0 IOpClX= 0 NMat=1 NMatS=1 NMatT=0.
 -------------------------------------------------------------------
 Center     Atomic                   Forces (Hartrees/Bohr)
 Number     Number              X              Y              Z
 -------------------------------------------------------------------
      1        1          -0.000103433   -0.000403290   -0.000060009
      2        6           0.000371649    0.001467204    0.000191325
      3        6          -0.000326058   -0.001509822   -0.000363467
      4        6          -0.000396063    0.000014937    0.000034588
      5        1           0.000102813    0.000278497   -0.000103964
      6        8           0.000449042   -0.000423106    0.000516094
      7        6          -0.000028608   -0.000405887   -0.000043683
      8        1           0.000077025    0.000176290    0.000081102
      9        6          -0.000189632    0.001132538   -0.000124323
     10        1           0.000060773    0.000198313   -0.000053420
     11        1          -0.000067625    0.000112774   -0.000045269
     12        1           0.000050116   -0.000638448   -0.000028974
 -------------------------------------------------------------------
 Cartesian Forces:  Max     0.001509822 RMS     0.000469866
 -----------------------------------------------------------------------------------------------
                       Internal Coordinate Forces (Hartree/Bohr or radian)
  Cent   Atom   N1       Length/X         N2         Alpha/Y        N3         Beta/Z          J
 -----------------------------------------------------------------------------------------------
      1  H 
      2  C        1   0.000060(     1)
      3  C        2  -0.000058(     2)      1  -0.000173(    12)
      4  C        2   0.000247(     3)      1  -0.000121(    13)      3  -0.000526(    22)     0
      5  H        3   0.000146(     4)      2  -0.000110(    14)      1  -0.001253(    23)     0
      6  O        3   0.000343(     5)      2  -0.000242(    15)      5  -0.001715(    24)     0
      7  C        4  -0.000083(     6)      2  -0.000116(    16)      1  -0.000761(    25)     0
      8  H        4  -0.000047(     7)      2   0.000073(    17)      7  -0.000357(    26)     0
      9  C        6  -0.000094(     8)      3  -0.000496(    18)      2  -0.001434(    27)     0
     10  H        7  -0.000028(     9)      4  -0.000118(    19)      2  -0.000352(    28)     0
     11  H        9  -0.000007(    10)      6   0.000009(    20)      3   0.000194(    29)     0
     12  H        9   0.000635(    11)      6  -0.000158(    21)     11  -0.000081(    30)     0
 -----------------------------------------------------------------------------------------------
 Internal  Forces:  Max     0.001714682 RMS     0.000540616

 GradGradGradGradGradGradGradGradGradGradGradGradGradGradGradGradGradGrad
 Berny optimization.
 Search for a local minimum.
 Step number   1 out of a maximum of   40
 All quantities printed in internal units (Hartrees-Bohrs-Radians)
 Second derivative matrix not updated -- first step.
 ITU=  0
     Eigenvalues ---    0.03373   0.04715   0.05333   0.07274   0.11613
     Eigenvalues ---    0.15628   0.17352   0.17493   0.18485   0.21963
     Eigenvalues ---    0.24825   0.27979   0.31914   0.33231   0.34946
     Eigenvalues ---    0.35676   0.35702   0.35780   0.35982   0.36886
     Eigenvalues ---    0.38298   0.42259   0.46506   0.54199   0.57527
     Eigenvalues ---    0.57834   0.60301   2.32671   3.92026  24.98446
 RFO step:  Lambda=-2.40552467D-05 EMin= 3.37251323D-02
 Linear search not attempted -- first point.
 Variable       Old X    -DE/DX   Delta X   Delta X   Delta X     New X
                                 (Linear)    (Quad)   (Total)
    R2        2.04109   0.00006   0.00000   0.00017   0.00017   2.04126
    R3        2.53377  -0.00006   0.00000  -0.00010  -0.00010   2.53367
    R4        2.74958   0.00025   0.00000   0.00044   0.00044   2.75001
    R5        2.04591   0.00015   0.00000   0.00041   0.00041   2.04632
    R6        2.55889   0.00034   0.00000   0.00084   0.00084   2.55972
    R7        2.52387  -0.00008   0.00000  -0.00039  -0.00039   2.52349
    R8        2.04550  -0.00005   0.00000  -0.00013  -0.00013   2.04536
    R9        2.73196  -0.00009   0.00000   0.00031   0.00031   2.73227
   R10        2.04430  -0.00003   0.00000  -0.00006  -0.00006   2.04424
   R11        2.05763  -0.00001   0.00000   0.00001   0.00001   2.05765
   R12        2.08648   0.00064   0.00000   0.00192   0.00192   2.08839
    A3        2.08803  -0.00017   0.00000  -0.00069  -0.00069   2.08735
    A4        2.11705  -0.00012   0.00000  -0.00149  -0.00149   2.11555
    A5        2.16913  -0.00011   0.00000  -0.00088  -0.00088   2.16825
    A6        2.15667  -0.00024   0.00000   0.00090   0.00090   2.15757
    A7        2.08022  -0.00012   0.00000  -0.00040  -0.00040   2.07982
    A8        2.08174   0.00007   0.00000   0.00049   0.00049   2.08224
    A9        2.01727  -0.00050   0.00000   0.00011   0.00011   2.01738
   A10        2.13961  -0.00012   0.00000  -0.00054  -0.00054   2.13907
   A11        1.83940   0.00001   0.00000  -0.00003  -0.00003   1.83937
   A12        1.87243  -0.00016   0.00000  -0.00082  -0.00082   1.87161
    D4        2.93906  -0.00053   0.00000  -0.00989  -0.00989   2.92916
    D5        0.03656  -0.00125   0.00000  -0.00282  -0.00282   0.03374
    D6        3.03956  -0.00171   0.00000  -0.00330  -0.00330   3.03626
    D7        3.07782  -0.00076   0.00000   0.00981   0.00981   3.08764
    D8        3.04402  -0.00036   0.00000  -0.00413  -0.00413   3.03988
    D9        0.36779  -0.00143   0.00000  -0.00768  -0.00768   0.36011
   D10        3.03165  -0.00035   0.00000  -0.00318  -0.00318   3.02847
   D11       -2.83429   0.00019   0.00000   0.00731   0.00731  -2.82697
   D12       -2.00870  -0.00008   0.00000   0.00006   0.00006  -2.00864
         Item               Value     Threshold  Converged?
 Maximum Force            0.001715     0.000450     NO 
 RMS     Force            0.000541     0.000300     NO 
 Maximum Displacement     0.009895     0.001800     NO 
 RMS     Displacement     0.003481     0.001200     NO 
 Predicted change in Energy=-1.202762D-05
 GradGradGradGradGradGradGradGradGradGradGradGradGradGradGradGradGradGrad

 ---------------------------------------------------------------------------------------------------
                            Z-MATRIX (ANGSTROMS AND DEGREES)
   CD    Cent   Atom    N1       Length/X        N2       Alpha/Y        N3        Beta/Z          J
 ---------------------------------------------------------------------------------------------------
      1      1  H 
      2      2  C        1   1.080188(     1)
      3      3  C        2   1.340760(     2)      1  119.596(    12)
      4      4  C        2   1.455244(     3)      1  121.212(    13)      3  167.829(    22)      0
      5      5  H        3   1.082864(     4)      2  124.232(    14)      1    1.933(    23)      0
      6      6  O        3   1.354548(     5)      2  123.620(    15)      5  173.965(    24)      0
      7      7  C        4   1.335371(     6)      2  119.165(    16)      1  176.908(    25)      0
      8      8  H        4   1.082360(     7)      2  119.303(    17)      7  174.173(    26)      0
      9      9  C        6   1.445855(     8)      3  115.588(    18)      2   20.633(    27)      0
     10     10  H        7   1.081764(     9)      4  122.560(    19)      2  173.518(    28)      0
     11     11  H        9   1.088861(    10)      6  105.388(    20)      3 -161.974(    29)      0
     12     12  H        9   1.105130(    11)      6  107.235(    21)     11 -115.087(    30)      0
 ---------------------------------------------------------------------------------------------------
                         Z-Matrix orientation:                         
 ---------------------------------------------------------------------
 Center     Atomic      Atomic             Coordinates (Angstroms)
 Number     Number       Type             X           Y           Z
 ---------------------------------------------------------------------
      1          1           0        0.000000    0.000000    0.000000
      2          6           0        0.000000    0.000000    1.080188
      3          6           0        1.165829    0.000000    1.742366
      4          6           0       -1.216625    0.262410    1.834311
      5          1           0        2.137418    0.030205    1.265189
      6          8           0        1.262298    0.080680    3.091063
      7          6           0       -1.184104    0.191061    3.167378
      8          1           0       -2.100994    0.602857    1.311348
      9          6           0        0.073989   -0.292136    3.825520
     10          1           0       -2.025087    0.473896    3.786220
     11          1           0        0.204855    0.130339    4.820510
     12          1           0        0.076882   -1.393576    3.915715
 ---------------------------------------------------------------------
                    Distance matrix (angstroms):
                    1          2          3          4          5
     1  H    0.000000
     2  C    1.080188   0.000000
     3  C    2.096425   1.340760   0.000000
     4  C    2.216694   1.455244   2.398624   0.000000
     5  H    2.483983   2.145622   1.082864   3.409900   0.000000
     6  O    3.339847   2.375610   1.354548   2.785231   2.025389
     7  C    3.386870   2.407274   2.754877   1.335371   3.831019
     8  H    2.548970   2.197965   3.349828   1.082360   4.277172
     9  C    3.837371   2.761822   2.370018   2.436825   3.304079
    10  H    4.319840   3.412941   3.818883   2.123273   4.886605
    11  H    4.826621   3.748195   3.227294   3.309899   4.047855
    12  H    4.157017   3.160408   2.802018   2.957650   3.646677
                    6          7          8          9         10
     6  O    0.000000
     7  C    2.450080   0.000000
     8  H    3.840806   2.110713   0.000000
     9  C    1.445855   1.499810   3.442764   0.000000
    10  H    3.383011   1.081764   2.479392   2.234831   0.000000
    11  H    2.027717   2.160033   4.225451   1.088861   2.482022
    12  H    2.063660   2.158974   3.938479   1.105130   2.814693
                   11         12
    11  H    0.000000
    12  H    1.776893   0.000000
 Symmetry turned off by external request.
 Stoichiometry    C5H6O
 Framework group  C1[X(C5H6O)]
 Deg. of freedom    30
 Full point group                 C1      NOp   1
 Rotational constants (GHZ):           5.5816943           5.3635228           2.8495892
 Standard basis: def2TZVP (5D, 7F)
 The following finite field(s) will be applied:
 An electric field of              0.0053 -0.0085 -0.0003
   222 basis functions,   354 primitive gaussians,   252 cartesian basis functions
    22 alpha electrons       22 beta electrons
       nuclear repulsion energy       223.4813677175 Hartrees.
 NAtoms=   12 NActive=   12 NUniq=   12 SFac= 1.00D+00 NAtFMM=   60 NAOKFM=F Big=F
 Integral buffers will be    131072 words long.
 Raffenetti 2 integral format.
 Two-electron integral symmetry is turned off.
 One-electron integrals computed using PRISM.
   1 Symmetry operations used in ECPInt.
 ECPInt:  NShTT=    4095 NPrTT=   12396 LenC2=    4075 LenP2D=   10418.
 LDataN:  DoStor=T MaxTD1= 6 Len=  172
 NBasis=   222 RedAO= T EigKep=  9.85D-05  NBF=   222
 NBsUse=   222 1.00D-06 EigRej= -1.00D+00 NBFU=   222
 The nuclear repulsion energy is now       223.4038592855 hartrees.
 Initial guess from the checkpoint file:  "checkpoint.chk"
 B after Tr=    -0.000729   -0.014910    0.000259
         Rot=    0.999988    0.003987   -0.000232    0.002820 Ang=   0.56 deg.
 Keep R1 ints in memory in canonical form, NReq=319363885.
 Requested convergence on RMS density matrix=1.00D-08 within 128 cycles.
 Requested convergence on MAX density matrix=1.00D-06.
 Requested convergence on             energy=1.00D-06.
 No special actions if energy rises.
 SCF Done:  E(RB3LYP) =  -269.425845098     A.U. after    9 cycles
            NFock=  9  Conv=0.22D-08     -V/T= 2.0050
   1 Symmetry operations used in ECPInt.
 ECPInt:  NShTT=    4095 NPrTT=   12396 LenC2=    4075 LenP2D=   10418.
 LDataN:  DoStor=T MaxTD1= 7 Len=  274
 Calling FoFJK, ICntrl=      2127 FMM=F ISym2X=0 I1Cent= 0 IOpClX= 0 NMat=1 NMatS=1 NMatT=0.
 -------------------------------------------------------------------
 Center     Atomic                   Forces (Hartrees/Bohr)
 Number     Number              X              Y              Z
 -------------------------------------------------------------------
      1        1          -0.000061156   -0.000647067   -0.000028681
      2        6           0.000220185    0.001947373    0.000033030
      3        6          -0.000082794   -0.001360350   -0.000046796
      4        6          -0.000188493    0.000041248    0.000055035
      5        1          -0.000003116    0.000093293    0.000026838
      6        8           0.000173951   -0.000278704   -0.000148970
      7        6           0.000038497   -0.000155968   -0.000038106
      8        1           0.000032476    0.000025019   -0.000021937
      9        6          -0.000210528    0.000193568    0.000172244
     10        1           0.000059056    0.000143410    0.000006282
     11        1          -0.000043237    0.000020867   -0.000016720
     12        1           0.000065159   -0.000022690    0.000007782
 -------------------------------------------------------------------
 Cartesian Forces:  Max     0.001947373 RMS     0.000424162
 -----------------------------------------------------------------------------------------------
                       Internal Coordinate Forces (Hartree/Bohr or radian)
  Cent   Atom   N1       Length/X         N2         Alpha/Y        N3         Beta/Z          J
 -----------------------------------------------------------------------------------------------
      1  H 
      2  C        1   0.000029(     1)
      3  C        2  -0.000090(     2)      1   0.000161(    12)
      4  C        2   0.000059(     3)      1   0.000133(    13)      3  -0.000404(    22)     0
      5  H        3  -0.000012(     4)      2   0.000043(    14)      1  -0.000233(    23)     0
      6  O        3   0.000008(     5)      2   0.000016(    15)      5  -0.000392(    24)     0
      7  C        4  -0.000029(     6)      2  -0.000275(    16)      1  -0.000016(    25)     0
      8  H        4  -0.000008(     7)      2  -0.000071(    17)      7  -0.000054(    26)     0
      9  C        6   0.000189(     8)      3   0.000192(    18)      2  -0.000416(    27)     0
     10  H        7  -0.000005(     9)      4   0.000006(    19)      2  -0.000267(    28)     0
     11  H        9  -0.000012(    10)      6   0.000053(    20)      3   0.000159(    29)     0
     12  H        9   0.000023(    11)      6  -0.000111(    21)     11   0.000076(    30)     0
 -----------------------------------------------------------------------------------------------
 Internal  Forces:  Max     0.000416058 RMS     0.000171076

 GradGradGradGradGradGradGradGradGradGradGradGradGradGradGradGradGradGrad
 Berny optimization.
 Search for a local minimum.
 Step number   2 out of a maximum of   40
 All quantities printed in internal units (Hartrees-Bohrs-Radians)
 Update second derivatives using D2CorN and points    1    2
 DE= -1.76D-05 DEPred=-1.20D-05 R= 1.47D+00
 TightC=F SS=  1.41D+00  RLast= 1.91D-02 DXNew= 1.6818D-01 5.7196D-02
 Trust test= 1.47D+00 RLast= 1.91D-02 DXMaxT set to 1.00D-01
 ITU=  1  0
     Eigenvalues ---    0.01686   0.04371   0.05038   0.06924   0.11473
     Eigenvalues ---    0.15607   0.17341   0.17472   0.18479   0.21971
     Eigenvalues ---    0.24822   0.27973   0.31891   0.33220   0.34946
     Eigenvalues ---    0.35678   0.35702   0.35780   0.35981   0.36882
     Eigenvalues ---    0.38258   0.42154   0.46492   0.54213   0.57522
     Eigenvalues ---    0.57837   0.60301   2.32697   3.91970  24.98443
 RFO step:  Lambda=-6.43607479D-06 EMin= 1.68635750D-02
 Quartic linear search produced a step of  0.88739.
 Variable       Old X    -DE/DX   Delta X   Delta X   Delta X     New X
                                 (Linear)    (Quad)   (Total)
    R2        2.04126   0.00003   0.00015   0.00003   0.00018   2.04144
    R3        2.53367  -0.00009  -0.00009  -0.00019  -0.00028   2.53339
    R4        2.75001   0.00006   0.00039   0.00019   0.00058   2.75059
    R5        2.04632  -0.00001   0.00036  -0.00043  -0.00006   2.04625
    R6        2.55972   0.00001   0.00074  -0.00076  -0.00002   2.55971
    R7        2.52349  -0.00003  -0.00034   0.00028  -0.00006   2.52343
    R8        2.04536  -0.00001  -0.00012   0.00006  -0.00006   2.04531
    R9        2.73227   0.00019   0.00028   0.00074   0.00102   2.73329
   R10        2.04424  -0.00000  -0.00005   0.00005   0.00000   2.04424
   R11        2.05765  -0.00001   0.00001  -0.00004  -0.00003   2.05762
   R12        2.08839   0.00002   0.00170  -0.00149   0.00021   2.08861
    A3        2.08735   0.00016  -0.00061  -0.00025  -0.00086   2.08648
    A4        2.11555   0.00013  -0.00132  -0.00003  -0.00135   2.11420
    A5        2.16825   0.00004  -0.00078   0.00046  -0.00032   2.16793
    A6        2.15757   0.00002   0.00080   0.00044   0.00124   2.15881
    A7        2.07982  -0.00028  -0.00036   0.00030  -0.00005   2.07976
    A8        2.08224  -0.00007   0.00044  -0.00082  -0.00038   2.08185
    A9        2.01738   0.00019   0.00010   0.00201   0.00212   2.01950
   A10        2.13907   0.00001  -0.00048   0.00009  -0.00039   2.13868
   A11        1.83937   0.00005  -0.00002   0.00051   0.00048   1.83985
   A12        1.87161  -0.00011  -0.00072   0.00006  -0.00067   1.87094
    D4        2.92916  -0.00040  -0.00878  -0.00454  -0.01332   2.91584
    D5        0.03374  -0.00023  -0.00250  -0.00383  -0.00633   0.02742
    D6        3.03626  -0.00039  -0.00293   0.00233  -0.00060   3.03567
    D7        3.08764  -0.00002   0.00871   0.00650   0.01521   3.10285
    D8        3.03988  -0.00005  -0.00367  -0.00147  -0.00514   3.03474
    D9        0.36011  -0.00042  -0.00682  -0.00548  -0.01230   0.34781
   D10        3.02847  -0.00027  -0.00282  -0.00382  -0.00664   3.02182
   D11       -2.82697   0.00016   0.00649   0.00453   0.01102  -2.81595
   D12       -2.00864   0.00008   0.00005   0.00036   0.00041  -2.00823
         Item               Value     Threshold  Converged?
 Maximum Force            0.000416     0.000450     YES
 RMS     Force            0.000171     0.000300     YES
 Maximum Displacement     0.015211     0.001800     NO 
 RMS     Displacement     0.005176     0.001200     NO 
 Predicted change in Energy=-8.052408D-06
 GradGradGradGradGradGradGradGradGradGradGradGradGradGradGradGradGradGrad

 ---------------------------------------------------------------------------------------------------
                            Z-MATRIX (ANGSTROMS AND DEGREES)
   CD    Cent   Atom    N1       Length/X        N2       Alpha/Y        N3        Beta/Z          J
 ---------------------------------------------------------------------------------------------------
      1      1  H 
      2      2  C        1   1.080282(     1)
      3      3  C        2   1.340611(     2)      1  119.547(    12)
      4      4  C        2   1.455552(     3)      1  121.135(    13)      3  167.065(    22)      0
      5      5  H        3   1.082830(     4)      2  124.213(    14)      1    1.571(    23)      0
      6      6  O        3   1.354538(     5)      2  123.691(    15)      5  173.931(    24)      0
      7      7  C        4   1.335339(     6)      2  119.162(    16)      1  177.780(    25)      0
      8      8  H        4   1.082331(     7)      2  119.281(    17)      7  173.878(    26)      0
      9      9  C        6   1.446395(     8)      3  115.709(    18)      2   19.928(    27)      0
     10     10  H        7   1.081765(     9)      4  122.537(    19)      2  173.138(    28)      0
     11     11  H        9   1.088844(    10)      6  105.416(    20)      3 -161.342(    29)      0
     12     12  H        9   1.105242(    11)      6  107.197(    21)     11 -115.063(    30)      0
 ---------------------------------------------------------------------------------------------------
                         Z-Matrix orientation:                         
 ---------------------------------------------------------------------
 Center     Atomic      Atomic             Coordinates (Angstroms)
 Number     Number       Type             X           Y           Z
 ---------------------------------------------------------------------
      1          1           0        0.000000    0.000000    0.000000
      2          6           0        0.000000    0.000000    1.080282
      3          6           0        1.166270    0.000000    1.741382
      4          6           0       -1.214272    0.278883    1.832877
      5          1           0        2.137351    0.024547    1.262924
      6          8           0        1.265862    0.088393    3.089358
      7          6           0       -1.180014    0.224668    3.166676
      8          1           0       -2.095928    0.621901    1.307083
      9          6           0        0.073867   -0.260183    3.830778
     10          1           0       -2.016537    0.525853    3.782899
     11          1           0        0.209232    0.177186    4.818688
     12          1           0        0.066457   -1.360065    3.939245
 ---------------------------------------------------------------------
                    Distance matrix (angstroms):
                    1          2          3          4          5
     1  H    0.000000
     2  C    1.080282   0.000000
     3  C    2.095852   1.340611   0.000000
     4  C    2.216229   1.455552   2.398567   0.000000
     5  H    2.482710   2.145280   1.082830   3.409238   0.000000
     6  O    3.339814   2.376260   1.354538   2.786771   2.024705
     7  C    3.386849   2.407478   2.754448   1.335339   3.830042
     8  H    2.547183   2.197980   3.349226   1.082331   4.275445
     9  C    3.840314   2.763762   2.372049   2.437519   3.306495
    10  H    4.318943   3.412783   3.817666   2.123019   4.884298
    11  H    4.826482   3.748447   3.227558   3.309346   4.047764
    12  H    4.167955   3.166681   2.808909   2.960270   3.656288
                    6          7          8          9         10
     6  O    0.000000
     7  C    2.450889   0.000000
     8  H    3.842235   2.110634   0.000000
     9  C    1.446395   1.499443   3.443126   0.000000
    10  H    3.383270   1.081765   2.478950   2.233816   0.000000
    11  H    2.028529   2.159028   4.224086   1.088844   2.479612
    12  H    2.063713   2.159151   3.941114   1.105242   2.814249
                   11         12
    11  H    0.000000
    12  H    1.776780   0.000000
 Symmetry turned off by external request.
 Stoichiometry    C5H6O
 Framework group  C1[X(C5H6O)]
 Deg. of freedom    30
 Full point group                 C1      NOp   1
 Rotational constants (GHZ):           5.5785767           5.3633252           2.8474012
 Standard basis: def2TZVP (5D, 7F)
 The following finite field(s) will be applied:
 An electric field of              0.0053 -0.0085 -0.0003
   222 basis functions,   354 primitive gaussians,   252 cartesian basis functions
    22 alpha electrons       22 beta electrons
       nuclear repulsion energy       223.4474895372 Hartrees.
 NAtoms=   12 NActive=   12 NUniq=   12 SFac= 1.00D+00 NAtFMM=   60 NAOKFM=F Big=F
 Integral buffers will be    131072 words long.
 Raffenetti 2 integral format.
 Two-electron integral symmetry is turned off.
 One-electron integrals computed using PRISM.
   1 Symmetry operations used in ECPInt.
 ECPInt:  NShTT=    4095 NPrTT=   12396 LenC2=    4075 LenP2D=   10419.
 LDataN:  DoStor=T MaxTD1= 6 Len=  172
 NBasis=   222 RedAO= T EigKep=  9.90D-05  NBF=   222
 NBsUse=   222 1.00D-06 EigRej= -1.00D+00 NBFU=   222
 The nuclear repulsion energy is now       223.3595074715 hartrees.
 Initial guess from the checkpoint file:  "checkpoint.chk"
 B after Tr=    -0.002169   -0.021468    0.001538
         Rot=    0.999976    0.005523   -0.000501    0.004191 Ang=   0.80 deg.
 Keep R1 ints in memory in canonical form, NReq=319363885.
 Requested convergence on RMS density matrix=1.00D-08 within 128 cycles.
 Requested convergence on MAX density matrix=1.00D-06.
 Requested convergence on             energy=1.00D-06.
 No special actions if energy rises.
 SCF Done:  E(RB3LYP) =  -269.425853816     A.U. after    9 cycles
            NFock=  9  Conv=0.42D-08     -V/T= 2.0050
   1 Symmetry operations used in ECPInt.
 ECPInt:  NShTT=    4095 NPrTT=   12396 LenC2=    4075 LenP2D=   10419.
 LDataN:  DoStor=T MaxTD1= 7 Len=  274
 Calling FoFJK, ICntrl=      2127 FMM=F ISym2X=0 I1Cent= 0 IOpClX= 0 NMat=1 NMatS=1 NMatT=0.
 -------------------------------------------------------------------
 Center     Atomic                   Forces (Hartrees/Bohr)
 Number     Number              X              Y              Z
 -------------------------------------------------------------------
      1        1          -0.000063297   -0.000966022    0.000009748
      2        6          -0.000003137    0.002497412   -0.000109254
      3        6           0.000058658   -0.001481053    0.000314217
      4        6           0.000055052    0.000122548    0.000119431
      5        1           0.000023162   -0.000017759    0.000020361
      6        8           0.000107908   -0.000091223   -0.000372828
      7        6          -0.000134544   -0.000037324   -0.000087609
      8        1          -0.000009484   -0.000045183   -0.000021327
      9        6          -0.000109830   -0.000123009    0.000146835
     10        1          -0.000007596    0.000012973   -0.000009913
     11        1           0.000037967    0.000002371    0.000008300
     12        1           0.000045140    0.000126270   -0.000017960
 -------------------------------------------------------------------
 Cartesian Forces:  Max     0.002497412 RMS     0.000521035
 -----------------------------------------------------------------------------------------------
                       Internal Coordinate Forces (Hartree/Bohr or radian)
  Cent   Atom   N1       Length/X         N2         Alpha/Y        N3         Beta/Z          J
 -----------------------------------------------------------------------------------------------
      1  H 
      2  C        1  -0.000010(     1)
      3  C        2   0.000191(     2)      1  -0.000528(    12)
      4  C        2   0.000091(     3)      1  -0.000544(    13)      3  -0.000022(    22)     0
      5  H        3   0.000011(     4)      2   0.000059(    14)      1   0.000053(    23)     0
      6  O        3  -0.000234(     5)      2   0.000602(    15)      5   0.000083(    24)     0
      7  C        4  -0.000100(     6)      2   0.000354(    16)      1  -0.000045(    25)     0
      8  H        4   0.000004(     7)      2  -0.000032(    17)      7   0.000086(    26)     0
      9  C        6   0.000091(     8)      3   0.000357(    18)      2   0.000047(    27)     0
     10  H        7   0.000004(     9)      4  -0.000031(    19)      2  -0.000016(    28)     0
     11  H        9   0.000013(    10)      6  -0.000066(    20)      3   0.000001(    29)     0
     12  H        9  -0.000128(    11)      6  -0.000085(    21)     11   0.000036(    30)     0
 -----------------------------------------------------------------------------------------------
 Internal  Forces:  Max     0.000602170 RMS     0.000213229

 GradGradGradGradGradGradGradGradGradGradGradGradGradGradGradGradGradGrad
 Berny optimization.
 Search for a local minimum.
 Step number   3 out of a maximum of   40
 All quantities printed in internal units (Hartrees-Bohrs-Radians)
 Update second derivatives using D2CorN and points    1    2    3
 DE= -8.72D-06 DEPred=-8.05D-06 R= 1.08D+00
 TightC=F SS=  1.41D+00  RLast= 2.84D-02 DXNew= 1.6818D-01 8.5056D-02
 Trust test= 1.08D+00 RLast= 2.84D-02 DXMaxT set to 1.00D-01
 ITU=  1  1  0
     Eigenvalues ---    0.01646   0.04375   0.05064   0.06881   0.11439
     Eigenvalues ---    0.15589   0.17337   0.17476   0.18473   0.21976
     Eigenvalues ---    0.24823   0.27971   0.31881   0.33237   0.34946
     Eigenvalues ---    0.35678   0.35702   0.35780   0.35981   0.36882
     Eigenvalues ---    0.38235   0.42132   0.46497   0.54230   0.57524
     Eigenvalues ---    0.57837   0.60303   2.32700   3.91953  24.98448
 RFO step:  Lambda=-7.13821908D-07 EMin= 1.64642732D-02
 Quartic linear search produced a step of  0.07212.
 Variable       Old X    -DE/DX   Delta X   Delta X   Delta X     New X
                                 (Linear)    (Quad)   (Total)
    R2        2.04144  -0.00001   0.00001  -0.00003  -0.00002   2.04142
    R3        2.53339   0.00019  -0.00002   0.00016   0.00014   2.53352
    R4        2.75059   0.00009   0.00004   0.00007   0.00011   2.75070
    R5        2.04625   0.00001  -0.00000   0.00004   0.00003   2.04628
    R6        2.55971  -0.00023  -0.00000  -0.00057  -0.00058   2.55913
    R7        2.52343  -0.00010  -0.00000  -0.00009  -0.00010   2.52333
    R8        2.04531   0.00000  -0.00000   0.00001   0.00001   2.04532
    R9        2.73329   0.00009   0.00007   0.00039   0.00047   2.73376
   R10        2.04424   0.00000   0.00000   0.00001   0.00001   2.04425
   R11        2.05762   0.00001  -0.00000   0.00004   0.00004   2.05766
   R12        2.08861  -0.00013   0.00002  -0.00042  -0.00040   2.08820
    A3        2.08648  -0.00053  -0.00006   0.00005  -0.00001   2.08647
    A4        2.11420  -0.00054  -0.00010   0.00001  -0.00008   2.11412
    A5        2.16793   0.00006  -0.00002   0.00016   0.00014   2.16807
    A6        2.15881   0.00060   0.00009   0.00014   0.00023   2.15904
    A7        2.07976   0.00035  -0.00000   0.00025   0.00024   2.08000
    A8        2.08185  -0.00003  -0.00003  -0.00018  -0.00021   2.08164
    A9        2.01950   0.00036   0.00015   0.00034   0.00050   2.01999
   A10        2.13868  -0.00003  -0.00003  -0.00005  -0.00008   2.13860
   A11        1.83985  -0.00007   0.00003  -0.00019  -0.00015   1.83970
   A12        1.87094  -0.00009  -0.00005  -0.00051  -0.00055   1.87039
    D4        2.91584  -0.00002  -0.00096  -0.00020  -0.00116   2.91468
    D5        0.02742   0.00005  -0.00046  -0.00057  -0.00103   0.02639
    D6        3.03567   0.00008  -0.00004   0.00087   0.00083   3.03650
    D7        3.10285  -0.00004   0.00110  -0.00009   0.00100   3.10385
    D8        3.03474   0.00009  -0.00037   0.00094   0.00057   3.03531
    D9        0.34781   0.00005  -0.00089  -0.00099  -0.00188   0.34594
   D10        3.02182  -0.00002  -0.00048   0.00027  -0.00021   3.02161
   D11       -2.81595   0.00000   0.00079   0.00081   0.00161  -2.81435
   D12       -2.00823   0.00004   0.00003   0.00034   0.00037  -2.00786
         Item               Value     Threshold  Converged?
 Maximum Force            0.000602     0.000450     NO 
 RMS     Force            0.000213     0.000300     YES
 Maximum Displacement     0.001877     0.001800     NO 
 RMS     Displacement     0.000639     0.001200     YES
 Predicted change in Energy=-3.789606D-07
 GradGradGradGradGradGradGradGradGradGradGradGradGradGradGradGradGradGrad

 ---------------------------------------------------------------------------------------------------
                            Z-MATRIX (ANGSTROMS AND DEGREES)
   CD    Cent   Atom    N1       Length/X        N2       Alpha/Y        N3        Beta/Z          J
 ---------------------------------------------------------------------------------------------------
      1      1  H 
      2      2  C        1   1.080271(     1)
      3      3  C        2   1.340683(     2)      1  119.546(    12)
      4      4  C        2   1.455609(     3)      1  121.130(    13)      3  166.999(    22)      0
      5      5  H        3   1.082847(     4)      2  124.221(    14)      1    1.512(    23)      0
      6      6  O        3   1.354233(     5)      2  123.704(    15)      5  173.978(    24)      0
      7      7  C        4   1.335289(     6)      2  119.175(    16)      1  177.837(    25)      0
      8      8  H        4   1.082335(     7)      2  119.269(    17)      7  173.910(    26)      0
      9      9  C        6   1.446641(     8)      3  115.737(    18)      2   19.821(    27)      0
     10     10  H        7   1.081772(     9)      4  122.533(    19)      2  173.125(    28)      0
     11     11  H        9   1.088866(    10)      6  105.407(    20)      3 -161.250(    29)      0
     12     12  H        9   1.105029(    11)      6  107.165(    21)     11 -115.042(    30)      0
 ---------------------------------------------------------------------------------------------------
                         Z-Matrix orientation:                         
 ---------------------------------------------------------------------
 Center     Atomic      Atomic             Coordinates (Angstroms)
 Number     Number       Type             X           Y           Z
 ---------------------------------------------------------------------
      1          1           0        0.000000    0.000000    0.000000
      2          6           0        0.000000    0.000000    1.080271
      3          6           0        1.166339    0.000000    1.741394
      4          6           0       -1.214056    0.280317    1.832792
      5          1           0        2.137507    0.023624    1.263028
      6          8           0        1.266244    0.088582    3.089029
      7          6           0       -1.179999    0.227302    3.166593
      8          1           0       -2.095598    0.622938    1.306539
      9          6           0        0.073790   -0.257332    3.831436
     10          1           0       -2.016384    0.529797    3.782375
     11          1           0        0.210024    0.181702    4.818513
     12          1           0        0.065837   -1.356800    3.941865
 ---------------------------------------------------------------------
                    Distance matrix (angstroms):
                    1          2          3          4          5
     1  H    0.000000
     2  C    1.080271   0.000000
     3  C    2.095901   1.340683   0.000000
     4  C    2.216221   1.455609   2.398585   0.000000
     5  H    2.482888   2.145435   1.082847   3.409324   0.000000
     6  O    3.339658   2.376200   1.354233   2.786894   2.024252
     7  C    3.386942   2.407656   2.754662   1.335289   3.830260
     8  H    2.546886   2.197903   3.349236   1.082335   4.275540
     9  C    3.840777   2.764159   2.372375   2.437661   3.306748
    10  H    4.318894   3.412895   3.817855   2.122933   4.884478
    11  H    4.826509   3.748543   3.227416   3.309419   4.047425
    12  H    4.169357   3.167643   2.809641   2.960822   3.656987
                    6          7          8          9         10
     6  O    0.000000
     7  C    2.451400   0.000000
     8  H    3.842497   2.110605   0.000000
     9  C    1.446641   1.499624   3.443287   0.000000
    10  H    3.383939   1.081772   2.478853   2.234012   0.000000
    11  H    2.028641   2.159417   4.224280   1.088866   2.480251
    12  H    2.063355   2.159290   3.941587   1.105029   2.814309
                   11         12
    11  H    0.000000
    12  H    1.776595   0.000000
 Symmetry turned off by external request.
 Stoichiometry    C5H6O
 Framework group  C1[X(C5H6O)]
 Deg. of freedom    30
 Full point group                 C1      NOp   1
 Rotational constants (GHZ):           5.5781869           5.3628214           2.8468639
 Standard basis: def2TZVP (5D, 7F)
 The following finite field(s) will be applied:
 An electric field of              0.0053 -0.0085 -0.0003
   222 basis functions,   354 primitive gaussians,   252 cartesian basis functions
    22 alpha electrons       22 beta electrons
       nuclear repulsion energy       223.4395505211 Hartrees.
 NAtoms=   12 NActive=   12 NUniq=   12 SFac= 1.00D+00 NAtFMM=   60 NAOKFM=F Big=F
 Integral buffers will be    131072 words long.
 Raffenetti 2 integral format.
 Two-electron integral symmetry is turned off.
 One-electron integrals computed using PRISM.
   1 Symmetry operations used in ECPInt.
 ECPInt:  NShTT=    4095 NPrTT=   12396 LenC2=    4075 LenP2D=   10418.
 LDataN:  DoStor=T MaxTD1= 6 Len=  172
 NBasis=   222 RedAO= T EigKep=  9.91D-05  NBF=   222
 NBsUse=   222 1.00D-06 EigRej= -1.00D+00 NBFU=   222
 The nuclear repulsion energy is now       223.3507385386 hartrees.
 Initial guess from the checkpoint file:  "checkpoint.chk"
 B after Tr=    -0.000190   -0.002166    0.000174
         Rot=    1.000000    0.000485   -0.000037    0.000365 Ang=   0.07 deg.
 Keep R1 ints in memory in canonical form, NReq=319363885.
 Requested convergence on RMS density matrix=1.00D-08 within 128 cycles.
 Requested convergence on MAX density matrix=1.00D-06.
 Requested convergence on             energy=1.00D-06.
 No special actions if energy rises.
 SCF Done:  E(RB3LYP) =  -269.425854339     A.U. after    7 cycles
            NFock=  7  Conv=0.67D-08     -V/T= 2.0050
   1 Symmetry operations used in ECPInt.
 ECPInt:  NShTT=    4095 NPrTT=   12396 LenC2=    4075 LenP2D=   10418.
 LDataN:  DoStor=T MaxTD1= 7 Len=  274
 Calling FoFJK, ICntrl=      2127 FMM=F ISym2X=0 I1Cent= 0 IOpClX= 0 NMat=1 NMatS=1 NMatT=0.
 -------------------------------------------------------------------
 Center     Atomic                   Forces (Hartrees/Bohr)
 Number     Number              X              Y              Z
 -------------------------------------------------------------------
      1        1          -0.000064044   -0.000984344    0.000005869
      2        6           0.000051385    0.002573421   -0.000054212
      3        6           0.000007833   -0.001558685    0.000152590
      4        6           0.000050608    0.000056996    0.000040799
      5        1           0.000005485   -0.000010919   -0.000011686
      6        8           0.000050260   -0.000015514   -0.000171831
      7        6          -0.000020210   -0.000020216   -0.000016758
      8        1          -0.000010207   -0.000027072   -0.000006629
      9        6          -0.000084032   -0.000047267    0.000069316
     10        1           0.000003393   -0.000002767    0.000000445
     11        1           0.000007181    0.000010893   -0.000009212
     12        1           0.000002349    0.000025475    0.000001309
 -------------------------------------------------------------------
 Cartesian Forces:  Max     0.002573421 RMS     0.000529965
 -----------------------------------------------------------------------------------------------
                       Internal Coordinate Forces (Hartree/Bohr or radian)
  Cent   Atom   N1       Length/X         N2         Alpha/Y        N3         Beta/Z          J
 -----------------------------------------------------------------------------------------------
      1  H 
      2  C        1  -0.000006(     1)
      3  C        2   0.000006(     2)      1   0.000055(    12)
      4  C        2  -0.000009(     3)      1   0.000043(    13)      3   0.000023(    22)     0
      5  H        3   0.000010(     4)      2  -0.000016(    14)      1  -0.000041(    23)     0
      6  O        3  -0.000113(     5)      2   0.000010(    15)      5  -0.000022(    24)     0
      7  C        4  -0.000016(     6)      2   0.000020(    16)      1  -0.000007(    25)     0
      8  H        4   0.000003(     7)      2  -0.000004(    17)      7   0.000053(    26)     0
      9  C        6   0.000096(     8)      3   0.000067(    18)      2  -0.000024(    27)     0
     10  H        7  -0.000003(     9)      4   0.000006(    19)      2   0.000002(    28)     0
     11  H        9  -0.000003(    10)      6  -0.000027(    20)      3   0.000026(    29)     0
     12  H        9  -0.000025(    11)      6   0.000000(    21)     11   0.000009(    30)     0
 -----------------------------------------------------------------------------------------------
 Internal  Forces:  Max     0.000113396 RMS     0.000036938

 GradGradGradGradGradGradGradGradGradGradGradGradGradGradGradGradGradGrad
 Berny optimization.
 Search for a local minimum.
 Step number   4 out of a maximum of   40
 All quantities printed in internal units (Hartrees-Bohrs-Radians)
 Update second derivatives using D2CorN and points    1    2    3    4
 DE= -5.23D-07 DEPred=-3.79D-07 R= 1.38D+00
 Trust test= 1.38D+00 RLast= 3.50D-03 DXMaxT set to 1.00D-01
 ITU=  0  1  1  0
     Eigenvalues ---    0.01123   0.04329   0.04927   0.06704   0.11513
     Eigenvalues ---    0.15517   0.17306   0.17457   0.18311   0.21948
     Eigenvalues ---    0.24806   0.27979   0.31875   0.33166   0.34947
     Eigenvalues ---    0.35676   0.35702   0.35780   0.35980   0.36882
     Eigenvalues ---    0.38095   0.42127   0.46383   0.53822   0.57489
     Eigenvalues ---    0.57830   0.60272   2.32701   3.91933  24.98461
 RFO step:  Lambda=-1.10796249D-07 EMin= 1.12255448D-02
 Quartic linear search produced a step of  0.53439.
 Variable       Old X    -DE/DX   Delta X   Delta X   Delta X     New X
                                 (Linear)    (Quad)   (Total)
    R2        2.04142  -0.00001  -0.00001  -0.00001  -0.00002   2.04139
    R3        2.53352   0.00001   0.00007  -0.00005   0.00002   2.53355
    R4        2.75070  -0.00001   0.00006  -0.00004   0.00002   2.75072
    R5        2.04628   0.00001   0.00002   0.00003   0.00005   2.04633
    R6        2.55913  -0.00011  -0.00031  -0.00009  -0.00040   2.55873
    R7        2.52333  -0.00002  -0.00005   0.00001  -0.00004   2.52329
    R8        2.04532   0.00000   0.00000   0.00001   0.00001   2.04533
    R9        2.73376   0.00010   0.00025   0.00021   0.00046   2.73421
   R10        2.04425  -0.00000   0.00001  -0.00002  -0.00001   2.04424
   R11        2.05766  -0.00000   0.00002  -0.00003  -0.00001   2.05765
   R12        2.08820  -0.00003  -0.00022   0.00007  -0.00015   2.08806
    A3        2.08647   0.00006  -0.00001   0.00010   0.00010   2.08657
    A4        2.11412   0.00004  -0.00004  -0.00002  -0.00006   2.11405
    A5        2.16807  -0.00002   0.00007  -0.00020  -0.00013   2.16794
    A6        2.15904   0.00001   0.00012   0.00006   0.00019   2.15923
    A7        2.08000   0.00002   0.00013   0.00012   0.00025   2.08026
    A8        2.08164  -0.00000  -0.00011  -0.00002  -0.00014   2.08151
    A9        2.01999   0.00007   0.00027   0.00017   0.00043   2.02043
   A10        2.13860   0.00001  -0.00004   0.00004  -0.00001   2.13859
   A11        1.83970  -0.00003  -0.00008  -0.00007  -0.00015   1.83955
   A12        1.87039   0.00000  -0.00030   0.00026  -0.00004   1.87035
    D4        2.91468   0.00002  -0.00062  -0.00016  -0.00078   2.91390
    D5        0.02639  -0.00004  -0.00055  -0.00035  -0.00090   0.02548
    D6        3.03650  -0.00002   0.00044   0.00022   0.00066   3.03716
    D7        3.10385  -0.00001   0.00054   0.00021   0.00074   3.10459
    D8        3.03531   0.00005   0.00030   0.00032   0.00062   3.03593
    D9        0.34594  -0.00002  -0.00100  -0.00028  -0.00128   0.34465
   D10        3.02161   0.00000  -0.00011   0.00006  -0.00006   3.02155
   D11       -2.81435   0.00003   0.00086   0.00080   0.00166  -2.81268
   D12       -2.00786   0.00001   0.00020  -0.00017   0.00003  -2.00783
         Item               Value     Threshold  Converged?
 Maximum Force            0.000113     0.000450     YES
 RMS     Force            0.000037     0.000300     YES
 Maximum Displacement     0.001663     0.001800     YES
 RMS     Displacement     0.000515     0.001200     YES
 Predicted change in Energy=-1.186651D-07
 Optimization completed.
    -- Stationary point found.
                       ----------------------------
                       !   Optimized Parameters   !
                       ! (Angstroms and Degrees)  !
 ----------------------                            ----------------------
 !      Name          Value   Derivative information (Atomic Units)     !
 ------------------------------------------------------------------------
 !       R2          1.0803   -DE/DX =    0.0                           !
 !       R3          1.3407   -DE/DX =    0.0                           !
 !       R4          1.4556   -DE/DX =    0.0                           !
 !       R5          1.0828   -DE/DX =    0.0                           !
 !       R6          1.3542   -DE/DX =   -0.0001                        !
 !       R7          1.3353   -DE/DX =    0.0                           !
 !       R8          1.0823   -DE/DX =    0.0                           !
 !       R9          1.4466   -DE/DX =    0.0001                        !
 !       R10         1.0818   -DE/DX =    0.0                           !
 !       R11         1.0889   -DE/DX =    0.0                           !
 !       R12         1.105    -DE/DX =    0.0                           !
 !       A3        119.5461   -DE/DX =    0.0001                        !
 !       A4        121.1299   -DE/DX =    0.0                           !
 !       A5        124.2212   -DE/DX =    0.0                           !
 !       A6        123.7038   -DE/DX =    0.0                           !
 !       A7        119.1755   -DE/DX =    0.0                           !
 !       A8        119.2694   -DE/DX =    0.0                           !
 !       A9        115.7371   -DE/DX =    0.0001                        !
 !       A10       122.5325   -DE/DX =    0.0                           !
 !       A11       105.4071   -DE/DX =    0.0                           !
 !       A12       107.1653   -DE/DX =    0.0                           !
 !       D4        166.9986   -DE/DX =    0.0                           !
 !       D5          1.5119   -DE/DX =    0.0                           !
 !       D6        173.9784   -DE/DX =    0.0                           !
 !       D7        177.8374   -DE/DX =    0.0                           !
 !       D8        173.9105   -DE/DX =    0.0001                        !
 !       D9         19.8206   -DE/DX =    0.0                           !
 !       D10       173.1255   -DE/DX =    0.0                           !
 !       D11      -161.2501   -DE/DX =    0.0                           !
 !       D12      -115.0418   -DE/DX =    0.0                           !
 ------------------------------------------------------------------------
 GradGradGradGradGradGradGradGradGradGradGradGradGradGradGradGradGradGrad

 ---------------------------------------------------------------------------------------------------
                            Z-MATRIX (ANGSTROMS AND DEGREES)
   CD    Cent   Atom    N1       Length/X        N2       Alpha/Y        N3        Beta/Z          J
 ---------------------------------------------------------------------------------------------------
      1      1  H 
      2      2  C        1   1.080271(     1)
      3      3  C        2   1.340683(     2)      1  119.546(    12)
      4      4  C        2   1.455609(     3)      1  121.130(    13)      3  166.999(    22)      0
      5      5  H        3   1.082847(     4)      2  124.221(    14)      1    1.512(    23)      0
      6      6  O        3   1.354233(     5)      2  123.704(    15)      5  173.978(    24)      0
      7      7  C        4   1.335289(     6)      2  119.175(    16)      1  177.837(    25)      0
      8      8  H        4   1.082335(     7)      2  119.269(    17)      7  173.910(    26)      0
      9      9  C        6   1.446641(     8)      3  115.737(    18)      2   19.821(    27)      0
     10     10  H        7   1.081772(     9)      4  122.533(    19)      2  173.125(    28)      0
     11     11  H        9   1.088866(    10)      6  105.407(    20)      3 -161.250(    29)      0
     12     12  H        9   1.105029(    11)      6  107.165(    21)     11 -115.042(    30)      0
 ---------------------------------------------------------------------------------------------------
                         Z-Matrix orientation:                         
 ---------------------------------------------------------------------
 Center     Atomic      Atomic             Coordinates (Angstroms)
 Number     Number       Type             X           Y           Z
 ---------------------------------------------------------------------
      1          1           0        0.000000    0.000000    0.000000
      2          6           0        0.000000    0.000000    1.080271
      3          6           0        1.166339    0.000000    1.741394
      4          6           0       -1.214056    0.280317    1.832792
      5          1           0        2.137507    0.023624    1.263028
      6          8           0        1.266244    0.088582    3.089029
      7          6           0       -1.179999    0.227302    3.166593
      8          1           0       -2.095598    0.622938    1.306539
      9          6           0        0.073790   -0.257332    3.831436
     10          1           0       -2.016384    0.529797    3.782375
     11          1           0        0.210024    0.181702    4.818513
     12          1           0        0.065837   -1.356800    3.941865
 ---------------------------------------------------------------------
                    Distance matrix (angstroms):
                    1          2          3          4          5
     1  H    0.000000
     2  C    1.080271   0.000000
     3  C    2.095901   1.340683   0.000000
     4  C    2.216221   1.455609   2.398585   0.000000
     5  H    2.482888   2.145435   1.082847   3.409324   0.000000
     6  O    3.339658   2.376200   1.354233   2.786894   2.024252
     7  C    3.386942   2.407656   2.754662   1.335289   3.830260
     8  H    2.546886   2.197903   3.349236   1.082335   4.275540
     9  C    3.840777   2.764159   2.372375   2.437661   3.306748
    10  H    4.318894   3.412895   3.817855   2.122933   4.884478
    11  H    4.826509   3.748543   3.227416   3.309419   4.047425
    12  H    4.169357   3.167643   2.809641   2.960822   3.656987
                    6          7          8          9         10
     6  O    0.000000
     7  C    2.451400   0.000000
     8  H    3.842497   2.110605   0.000000
     9  C    1.446641   1.499624   3.443287   0.000000
    10  H    3.383939   1.081772   2.478853   2.234012   0.000000
    11  H    2.028641   2.159417   4.224280   1.088866   2.480251
    12  H    2.063355   2.159290   3.941587   1.105029   2.814309
                   11         12
    11  H    0.000000
    12  H    1.776595   0.000000
 Symmetry turned off by external request.
 Stoichiometry    C5H6O
 Framework group  C1[X(C5H6O)]
 Deg. of freedom    30
 Full point group                 C1      NOp   1
 Rotational constants (GHZ):           5.5781869           5.3628214           2.8468639

 **********************************************************************

            Population analysis using the SCF density.

 **********************************************************************

 Alpha  occ. eigenvalues --  -19.16371 -10.23409 -10.23263 -10.16910 -10.16655
 Alpha  occ. eigenvalues --  -10.16419  -1.07176  -0.80870  -0.77470  -0.66323
 Alpha  occ. eigenvalues --   -0.62404  -0.53167  -0.50839  -0.48396  -0.46203
 Alpha  occ. eigenvalues --   -0.43391  -0.40659  -0.37504  -0.35978  -0.32932
 Alpha  occ. eigenvalues --   -0.29893  -0.20818
 Alpha virt. eigenvalues --   -0.02945   0.03944   0.05263   0.07746   0.07967
 Alpha virt. eigenvalues --    0.09471   0.09880   0.11896   0.14271   0.16468
 Alpha virt. eigenvalues --    0.17618   0.19180   0.21299   0.22365   0.23563
 Alpha virt. eigenvalues --    0.25084   0.26286   0.27786   0.28470   0.29828
 Alpha virt. eigenvalues --    0.30784   0.33629   0.35143   0.36415   0.37572
 Alpha virt. eigenvalues --    0.38361   0.39587   0.40816   0.41286   0.44519
 Alpha virt. eigenvalues --    0.44604   0.45947   0.46959   0.49373   0.50839
 Alpha virt. eigenvalues --    0.53427   0.55426   0.58089   0.59547   0.63088
 Alpha virt. eigenvalues --    0.65267   0.66693   0.69134   0.71924   0.74052
 Alpha virt. eigenvalues --    0.77635   0.82495   0.85256   0.85602   0.89421
 Alpha virt. eigenvalues --    0.91152   0.93439   0.96039   0.97239   0.99786
 Alpha virt. eigenvalues --    1.05726   1.07490   1.09147   1.11511   1.12788
 Alpha virt. eigenvalues --    1.15727   1.18281   1.20252   1.23883   1.26708
 Alpha virt. eigenvalues --    1.30794   1.33387   1.37187   1.40331   1.42958
 Alpha virt. eigenvalues --    1.45265   1.45880   1.49096   1.51775   1.53104
 Alpha virt. eigenvalues --    1.56123   1.59877   1.63088   1.65417   1.67977
 Alpha virt. eigenvalues --    1.70051   1.72888   1.74948   1.78023   1.80141
 Alpha virt. eigenvalues --    1.85838   1.87311   1.90590   1.91743   1.97412
 Alpha virt. eigenvalues --    1.99903   2.01149   2.05788   2.10339   2.12954
 Alpha virt. eigenvalues --    2.15944   2.17886   2.21424   2.23362   2.26419
 Alpha virt. eigenvalues --    2.27765   2.36400   2.37853   2.45431   2.46364
 Alpha virt. eigenvalues --    2.51450   2.51885   2.53016   2.57962   2.59638
 Alpha virt. eigenvalues --    2.61140   2.62431   2.66000   2.68042   2.71015
 Alpha virt. eigenvalues --    2.72992   2.74784   2.77543   2.79411   2.81240
 Alpha virt. eigenvalues --    2.83675   2.84834   2.88095   2.88773   2.90585
 Alpha virt. eigenvalues --    2.94027   2.98092   3.01537   3.02322   3.07992
 Alpha virt. eigenvalues --    3.08277   3.11860   3.13073   3.15609   3.16811
 Alpha virt. eigenvalues --    3.19051   3.20230   3.23153   3.24932   3.25482
 Alpha virt. eigenvalues --    3.29078   3.29510   3.32756   3.36163   3.39421
 Alpha virt. eigenvalues --    3.40371   3.40954   3.45216   3.46535   3.48557
 Alpha virt. eigenvalues --    3.54788   3.58813   3.62040   3.67723   3.70020
 Alpha virt. eigenvalues --    3.78497   3.83605   3.89063   3.91433   3.94423
 Alpha virt. eigenvalues --    3.97657   4.03724   4.05238   4.12269   4.17384
 Alpha virt. eigenvalues --    4.20695   4.25527   4.28930   4.36862   4.40306
 Alpha virt. eigenvalues --    4.45772   4.52879   4.58769   4.63322   4.66695
 Alpha virt. eigenvalues --    4.68063   4.79502   4.84293   4.91179   4.94915
 Alpha virt. eigenvalues --    5.13009   5.18155   5.35725   5.44866   5.74406
 Alpha virt. eigenvalues --    5.85032   5.89642   6.23296   6.32608   6.65128
 Alpha virt. eigenvalues --    6.76278   6.86365   7.14661   7.25261  22.06571
 Alpha virt. eigenvalues --   22.31723  22.42456  22.74990  22.92657  44.04368
          Condensed to atoms (all electrons):
               1          2          3          4          5          6
     1  H    0.553064   0.396811  -0.032340  -0.034156  -0.004727   0.005480
     2  C    0.396811   5.098697   0.585594   0.374440  -0.075588  -0.072421
     3  C   -0.032340   0.585594   4.776456  -0.058378   0.430770   0.324786
     4  C   -0.034156   0.374440  -0.058378   4.826474   0.006986  -0.010919
     5  H   -0.004727  -0.075588   0.430770   0.006986   0.588751  -0.042690
     6  O    0.005480  -0.072421   0.324786  -0.010919  -0.042690   7.924402
     7  C    0.004936  -0.063035  -0.031529   0.662216  -0.001811  -0.031162
     8  H   -0.004044  -0.045386   0.004272   0.414799  -0.000266  -0.000896
     9  C   -0.000104  -0.036320  -0.060873  -0.045829   0.004194   0.285015
    10  H   -0.000198   0.004500   0.002121  -0.021653   0.000151   0.002955
    11  H    0.000136   0.004313  -0.001963   0.000594  -0.000604  -0.028060
    12  H   -0.000411  -0.000766   0.040964  -0.008664   0.002205  -0.078275
               7          8          9         10         11         12
     1  H    0.004936  -0.004044  -0.000104  -0.000198   0.000136  -0.000411
     2  C   -0.063035  -0.045386  -0.036320   0.004500   0.004313  -0.000766
     3  C   -0.031529   0.004272  -0.060873   0.002121  -0.001963   0.040964
     4  C    0.662216   0.414799  -0.045829  -0.021653   0.000594  -0.008664
     5  H   -0.001811  -0.000266   0.004194   0.000151  -0.000604   0.002205
     6  O   -0.031162  -0.000896   0.285015   0.002955  -0.028060  -0.078275
     7  C    5.004249  -0.024177   0.373921   0.400086  -0.029412  -0.085620
     8  H   -0.024177   0.500713   0.007178  -0.005985  -0.000263  -0.000141
     9  C    0.373921   0.007178   4.704880  -0.039883   0.419357   0.339517
    10  H    0.400086  -0.005985  -0.039883   0.504295  -0.004890   0.007591
    11  H   -0.029412  -0.000263   0.419357  -0.004890   0.581987  -0.067296
    12  H   -0.085620  -0.000141   0.339517   0.007591  -0.067296   0.825723
 Mulliken charges:
               1
     1  H    0.115553
     2  C   -0.170839
     3  C    0.020120
     4  C   -0.105912
     5  H    0.092628
     6  O   -0.278215
     7  C   -0.178662
     8  H    0.154195
     9  C    0.048947
    10  H    0.150910
    11  H    0.126102
    12  H    0.025171
 Sum of Mulliken charges =  -0.00000
 Mulliken charges with hydrogens summed into heavy atoms:
               1
     2  C   -0.055286
     3  C    0.112748
     4  C    0.048284
     6  O   -0.278215
     7  C   -0.027752
     9  C    0.200220
 Electronic spatial extent (au):  <R**2>=           1439.8022
 Charge=             -0.0000 electrons
 Dipole moment (field-independent basis, Debye):
    X=             -1.6123    Y=              0.8958    Z=              0.0382  Tot=              1.8448
 Quadrupole moment (field-independent basis, Debye-Ang):
   XX=            -34.8145   YY=            -38.3191   ZZ=            -31.6244
   XY=             -1.3211   XZ=             -5.8296   YZ=              1.6275
 Traceless Quadrupole moment (field-independent basis, Debye-Ang):
   XX=              0.1048   YY=             -3.3998   ZZ=              3.2949
   XY=             -1.3211   XZ=             -5.8296   YZ=              1.6275
 Octapole moment (field-independent basis, Debye-Ang**2):
  XXX=             -4.6054  YYY=             -4.1334  ZZZ=           -233.1120  XYY=             -0.1375
  XXY=              2.7687  XXZ=            -90.6465  XZZ=            -21.8301  YZZ=              3.9905
  YYZ=            -92.4157  XYZ=             -3.3007
 Hexadecapole moment (field-independent basis, Debye-Ang**3):
 XXXX=           -261.8263 YYYY=            -63.4672 ZZZZ=          -1410.9404 XXXY=              5.2768
 XXXZ=            -15.9044 YYYX=             14.2748 YYYZ=             -2.5305 ZZZX=            -74.4648
 ZZZY=             24.0720 XXYY=            -58.3066 XXZZ=           -323.9266 YYZZ=           -285.3149
 XXYZ=              8.6778 YYXZ=              2.5051 ZZXY=             -5.9831
 N-N= 2.233507385386D+02 E-N=-1.074585986784D+03  KE= 2.680763346515D+02
 1\1\GINC-BHC0032\FOpt\RB3LYP\def2TZVP\C5H6O1\DHANAWAY\21-Mar-2022\1\\#
  Opt=(Z-matrix, MaxStep=10) B3LYP/Def2TZVP geom=allcheckpoint guess=re
 ad Field=read NoSymm\\int_zmat_initalOpt\\0,1\H\C,1,R2\C,2,R3,1,A3\C,2
 ,R4,1,A4,3,D4,0\H,3,R5,2,A5,1,D5,0\O,3,R6,2,A6,5,D6,0\C,4,R7,2,A7,1,D7
 ,0\H,4,R8,2,A8,7,D8,0\C,6,R9,3,A9,2,D9,0\H,7,R10,4,A10,2,D10,0\H,9,R11
 ,6,A11,3,D11,0\H,9,R12,6,A12,11,D12,0\\R2=1.08027077\R3=1.34068287\R4=
 1.45560886\R5=1.08284733\R6=1.35423324\R7=1.33528885\R8=1.08233456\R9=
 1.44664149\R10=1.08177177\R11=1.08886647\R12=1.10502882\A3=119.5461244
 \A4=121.12992098\A5=124.22123232\A6=123.70383412\A7=119.17547389\A8=11
 9.26942448\A9=115.73712463\A10=122.53250757\A11=105.40709852\A12=107.1
 6527971\D4=166.99864631\D5=1.51191975\D6=173.97841852\D7=177.83743166\
 D8=173.91047354\D9=19.82063732\D10=173.12549943\D11=-161.25009768\D12=
 -115.04184677\\Version=ES64L-G16RevA.03\HF=-269.4258543\RMSD=6.701e-09
 \RMSF=5.300e-04\Dipole=-0.6343149,0.3524228,0.0150485\Quadrupole=0.077
 9477,-2.5276436,2.4496959,-0.9822013,-4.3341891,1.2099764\PG=C01 [X(C5
 H6O1)]\\@


 WHERE THERE IS MUCH DESIRE TO LEARN, THERE OF NECESSITY WILL BE
 MUCH ARGUING, MUCH WRITING, MANY OPINIONS; FOR OPINION IN GOOD MEN
 IS BUT KNOWLEDGE IN THE MAKING. -- JOHN MILTON.
 Job cpu time:       0 days  0 hours 15 minutes 53.5 seconds.
 Elapsed time:       0 days  0 hours  1 minutes 41.1 seconds.
 File lengths (MBytes):  RWF=     24 Int=      0 D2E=      0 Chk=     32 Scr=      1
 Normal termination of Gaussian 16 at Mon Mar 21 08:17:09 2022.
