 Entering Gaussian System, Link 0=g16
 Input=ts.gjf
 Output=ts.out
 Initial command:
 /software/gaussian/g16-a03/l1.exe "/local_scratch/11174366/Gau-730.inp" -scrdir="/local_scratch/11174366/"
 Entering Link 1 = /software/gaussian/g16-a03/l1.exe PID=       731.
  
 Copyright (c) 1988,1990,1992,1993,1995,1998,2003,2009,2016,
            Gaussian, Inc.  All Rights Reserved.
  
 This is part of the Gaussian(R) 16 program.  It is based on
 the Gaussian(R) 09 system (copyright 2009, Gaussian, Inc.),
 the Gaussian(R) 03 system (copyright 2003, Gaussian, Inc.),
 the Gaussian(R) 98 system (copyright 1998, Gaussian, Inc.),
 the Gaussian(R) 94 system (copyright 1995, Gaussian, Inc.),
 the Gaussian 92(TM) system (copyright 1992, Gaussian, Inc.),
 the Gaussian 90(TM) system (copyright 1990, Gaussian, Inc.),
 the Gaussian 88(TM) system (copyright 1988, Gaussian, Inc.),
 the Gaussian 86(TM) system (copyright 1986, Carnegie Mellon
 University), and the Gaussian 82(TM) system (copyright 1983,
 Carnegie Mellon University). Gaussian is a federally registered
 trademark of Gaussian, Inc.
  
 This software contains proprietary and confidential information,
 including trade secrets, belonging to Gaussian, Inc.
  
 This software is provided under written license and may be
 used, copied, transmitted, or stored only in accord with that
 written license.
  
 The following legend is applicable only to US Government
 contracts under FAR:
  
                    RESTRICTED RIGHTS LEGEND
  
 Use, reproduction and disclosure by the US Government is
 subject to restrictions as set forth in subparagraphs (a)
 and (c) of the Commercial Computer Software - Restricted
 Rights clause in FAR 52.227-19.
  
 Gaussian, Inc.
 340 Quinnipiac St., Bldg. 40, Wallingford CT 06492
  
  
 ---------------------------------------------------------------
 Warning -- This program may not be used in any manner that
 competes with the business of Gaussian, Inc. or will provide
 assistance to any competitor of Gaussian, Inc.  The licensee
 of this program is prohibited from giving any competitor of
 Gaussian, Inc. access to this program.  By using this program,
 the user acknowledges that Gaussian, Inc. is engaged in the
 business of creating and licensing software in the field of
 computational chemistry and represents and warrants to the
 licensee that it is not a competitor of Gaussian, Inc. and that
 it will not use this program in any manner prohibited above.
 ---------------------------------------------------------------
  

 Cite this work as:
 Gaussian 16, Revision A.03,
 M. J. Frisch, G. W. Trucks, H. B. Schlegel, G. E. Scuseria, 
 M. A. Robb, J. R. Cheeseman, G. Scalmani, V. Barone, 
 G. A. Petersson, H. Nakatsuji, X. Li, M. Caricato, A. V. Marenich, 
 J. Bloino, B. G. Janesko, R. Gomperts, B. Mennucci, H. P. Hratchian, 
 J. V. Ortiz, A. F. Izmaylov, J. L. Sonnenberg, D. Williams-Young, 
 F. Ding, F. Lipparini, F. Egidi, J. Goings, B. Peng, A. Petrone, 
 T. Henderson, D. Ranasinghe, V. G. Zakrzewski, J. Gao, N. Rega, 
 G. Zheng, W. Liang, M. Hada, M. Ehara, K. Toyota, R. Fukuda, 
 J. Hasegawa, M. Ishida, T. Nakajima, Y. Honda, O. Kitao, H. Nakai, 
 T. Vreven, K. Throssell, J. A. Montgomery, Jr., J. E. Peralta, 
 F. Ogliaro, M. J. Bearpark, J. J. Heyd, E. N. Brothers, K. N. Kudin, 
 V. N. Staroverov, T. A. Keith, R. Kobayashi, J. Normand, 
 K. Raghavachari, A. P. Rendell, J. C. Burant, S. S. Iyengar, 
 J. Tomasi, M. Cossi, J. M. Millam, M. Klene, C. Adamo, R. Cammi, 
 J. W. Ochterski, R. L. Martin, K. Morokuma, O. Farkas, 
 J. B. Foresman, and D. J. Fox, Gaussian, Inc., Wallingford CT, 2016.
 
 ******************************************
 Gaussian 16:  ES64L-G16RevA.03 25-Dec-2016
                10-Jun-2022 
 ******************************************
 %nprocshared=12
 Will use up to   12 processors via shared memory.
 %chk=checkpoint.chk
 %mem=12GB
 --------------------------------------------------------------------
 # Opt=(TS, CalcFC, noeigentest) B3LYP/Def2TZVP freq=noraman pop=none
 --------------------------------------------------------------------
 1/5=1,10=4,11=1,18=20,26=3,38=1/1,3;
 2/9=110,12=2,17=6,18=5,40=1/2;
 3/5=44,7=101,11=2,25=1,30=1,71=2,74=-5,140=1/1,2,3;
 4//1;
 5/5=2,38=5/2;
 8/6=4,10=90,11=11/1;
 11/6=1,8=1,9=11,15=111,16=1/1,2,10;
 10/6=1,13=1/2;
 7/10=1,18=20,25=1/1,2,3,16;
 1/5=1,10=4,11=1,18=20,26=3/3(2);
 2/9=110/2;
 99//99;
 2/9=110/2;
 3/5=44,7=101,11=2,25=1,30=1,71=1,74=-5/1,2,3;
 4/5=5,16=3,69=1/1;
 5/5=2,38=5/2;
 7//1,2,3,16;
 1/5=1,11=1,18=20,26=3/3(-5);
 2/9=110/2;
 99/9=1/99;
 ------------
 ts_initalOpt
 ------------
 Symbolic Z-matrix:
 Charge =  0 Multiplicity = 1
 6                    -1.52584  -0.76959  -0.55699 
 6                    -1.52583   0.7696   -0.55699 
 6                    -0.65472   1.093     0.65083 
 6                    -0.65473  -1.09299   0.65083 
 6                     0.68631  -1.4552    0.56679 
 6                     1.4959   -1.22078  -0.52183 
 6                     0.68632   1.4552    0.56679 
 6                     1.49591   1.22077  -0.52183 
 1                     1.08431   1.1175   -1.51494 
 1                     2.55017   1.458    -0.47588 
 1                     1.17256   1.72379   1.50056 
 1                    -1.17515   1.33861   1.56927 
 1                    -2.52619   1.18943  -0.43613 
 1                    -1.11563   1.19298  -1.47567 
 1                    -2.5262   -1.18941  -0.43613 
 1                    -1.11564  -1.19297  -1.47567 
 1                    -1.17516  -1.33861   1.56927 
 1                     1.17255  -1.7238    1.50056 
 1                     1.0843   -1.1175   -1.51494 
 1                     2.55016  -1.45802  -0.47589 
 

 GradGradGradGradGradGradGradGradGradGradGradGradGradGradGradGradGradGrad
 Berny optimization.
 Initialization pass.
                           ----------------------------
                           !    Initial Parameters    !
                           ! (Angstroms and Degrees)  !
 --------------------------                            --------------------------
 ! Name  Definition              Value          Derivative Info.                !
 --------------------------------------------------------------------------------
 ! R1    R(1,2)                  1.5392         calculate D2E/DX2 analytically  !
 ! R2    R(1,4)                  1.5239         calculate D2E/DX2 analytically  !
 ! R3    R(1,15)                 1.0916         calculate D2E/DX2 analytically  !
 ! R4    R(1,16)                 1.0916         calculate D2E/DX2 analytically  !
 ! R5    R(2,3)                  1.5239         calculate D2E/DX2 analytically  !
 ! R6    R(2,13)                 1.0916         calculate D2E/DX2 analytically  !
 ! R7    R(2,14)                 1.0916         calculate D2E/DX2 analytically  !
 ! R8    R(3,7)                  1.3916         calculate D2E/DX2 analytically  !
 ! R9    R(3,12)                 1.0838         calculate D2E/DX2 analytically  !
 ! R10   R(4,5)                  1.3916         calculate D2E/DX2 analytically  !
 ! R11   R(4,17)                 1.0838         calculate D2E/DX2 analytically  !
 ! R12   R(5,6)                  1.3768         calculate D2E/DX2 analytically  !
 ! R13   R(5,18)                 1.0865         calculate D2E/DX2 analytically  !
 ! R14   R(6,19)                 1.08           calculate D2E/DX2 analytically  !
 ! R15   R(6,20)                 1.0816         calculate D2E/DX2 analytically  !
 ! R16   R(7,8)                  1.3768         calculate D2E/DX2 analytically  !
 ! R17   R(7,11)                 1.0865         calculate D2E/DX2 analytically  !
 ! R18   R(8,9)                  1.08           calculate D2E/DX2 analytically  !
 ! R19   R(8,10)                 1.0816         calculate D2E/DX2 analytically  !
 ! A1    A(2,1,4)              102.2523         calculate D2E/DX2 analytically  !
 ! A2    A(2,1,15)             112.6187         calculate D2E/DX2 analytically  !
 ! A3    A(2,1,16)             112.8217         calculate D2E/DX2 analytically  !
 ! A4    A(4,1,15)             110.7621         calculate D2E/DX2 analytically  !
 ! A5    A(4,1,16)             111.7116         calculate D2E/DX2 analytically  !
 ! A6    A(15,1,16)            106.7621         calculate D2E/DX2 analytically  !
 ! A7    A(1,2,3)              102.2523         calculate D2E/DX2 analytically  !
 ! A8    A(1,2,13)             112.6186         calculate D2E/DX2 analytically  !
 ! A9    A(1,2,14)             112.8217         calculate D2E/DX2 analytically  !
 ! A10   A(3,2,13)             110.7621         calculate D2E/DX2 analytically  !
 ! A11   A(3,2,14)             111.7116         calculate D2E/DX2 analytically  !
 ! A12   A(13,2,14)            106.7621         calculate D2E/DX2 analytically  !
 ! A13   A(2,3,7)              123.9329         calculate D2E/DX2 analytically  !
 ! A14   A(2,3,12)             116.4388         calculate D2E/DX2 analytically  !
 ! A15   A(7,3,12)             117.0593         calculate D2E/DX2 analytically  !
 ! A16   A(1,4,5)              123.9329         calculate D2E/DX2 analytically  !
 ! A17   A(1,4,17)             116.4387         calculate D2E/DX2 analytically  !
 ! A18   A(5,4,17)             117.0593         calculate D2E/DX2 analytically  !
 ! A19   A(4,5,6)              124.7568         calculate D2E/DX2 analytically  !
 ! A20   A(4,5,18)             116.3396         calculate D2E/DX2 analytically  !
 ! A21   A(6,5,18)             117.2896         calculate D2E/DX2 analytically  !
 ! A22   A(5,6,19)             121.2836         calculate D2E/DX2 analytically  !
 ! A23   A(5,6,20)             120.148          calculate D2E/DX2 analytically  !
 ! A24   A(19,6,20)            115.5647         calculate D2E/DX2 analytically  !
 ! A25   A(3,7,8)              124.7568         calculate D2E/DX2 analytically  !
 ! A26   A(3,7,11)             116.3396         calculate D2E/DX2 analytically  !
 ! A27   A(8,7,11)             117.2896         calculate D2E/DX2 analytically  !
 ! A28   A(7,8,9)              121.2836         calculate D2E/DX2 analytically  !
 ! A29   A(7,8,10)             120.148          calculate D2E/DX2 analytically  !
 ! A30   A(9,8,10)             115.5647         calculate D2E/DX2 analytically  !
 ! D1    D(4,1,2,3)             -0.0002         calculate D2E/DX2 analytically  !
 ! D2    D(4,1,2,13)          -118.9116         calculate D2E/DX2 analytically  !
 ! D3    D(4,1,2,14)           120.1385         calculate D2E/DX2 analytically  !
 ! D4    D(15,1,2,3)           118.9112         calculate D2E/DX2 analytically  !
 ! D5    D(15,1,2,13)           -0.0002         calculate D2E/DX2 analytically  !
 ! D6    D(15,1,2,14)         -120.9501         calculate D2E/DX2 analytically  !
 ! D7    D(16,1,2,3)          -120.1388         calculate D2E/DX2 analytically  !
 ! D8    D(16,1,2,13)          120.9498         calculate D2E/DX2 analytically  !
 ! D9    D(16,1,2,14)           -0.0001         calculate D2E/DX2 analytically  !
 ! D10   D(2,1,4,5)           -100.0728         calculate D2E/DX2 analytically  !
 ! D11   D(2,1,4,17)            98.6852         calculate D2E/DX2 analytically  !
 ! D12   D(15,1,4,5)           139.7138         calculate D2E/DX2 analytically  !
 ! D13   D(15,1,4,17)          -21.5282         calculate D2E/DX2 analytically  !
 ! D14   D(16,1,4,5)            20.8366         calculate D2E/DX2 analytically  !
 ! D15   D(16,1,4,17)         -140.4054         calculate D2E/DX2 analytically  !
 ! D16   D(1,2,3,7)            100.0731         calculate D2E/DX2 analytically  !
 ! D17   D(1,2,3,12)           -98.6848         calculate D2E/DX2 analytically  !
 ! D18   D(13,2,3,7)          -139.7136         calculate D2E/DX2 analytically  !
 ! D19   D(13,2,3,12)           21.5285         calculate D2E/DX2 analytically  !
 ! D20   D(14,2,3,7)           -20.8364         calculate D2E/DX2 analytically  !
 ! D21   D(14,2,3,12)          140.4056         calculate D2E/DX2 analytically  !
 ! D22   D(2,3,7,8)            -18.8923         calculate D2E/DX2 analytically  !
 ! D23   D(2,3,7,11)           176.0358         calculate D2E/DX2 analytically  !
 ! D24   D(12,3,7,8)           179.9722         calculate D2E/DX2 analytically  !
 ! D25   D(12,3,7,11)           14.9003         calculate D2E/DX2 analytically  !
 ! D26   D(1,4,5,6)             18.8924         calculate D2E/DX2 analytically  !
 ! D27   D(1,4,5,18)          -176.0357         calculate D2E/DX2 analytically  !
 ! D28   D(17,4,5,6)          -179.9722         calculate D2E/DX2 analytically  !
 ! D29   D(17,4,5,18)          -14.9003         calculate D2E/DX2 analytically  !
 ! D30   D(4,5,6,19)           -25.7027         calculate D2E/DX2 analytically  !
 ! D31   D(4,5,6,20)           174.7703         calculate D2E/DX2 analytically  !
 ! D32   D(18,5,6,19)          169.354          calculate D2E/DX2 analytically  !
 ! D33   D(18,5,6,20)            9.827          calculate D2E/DX2 analytically  !
 ! D34   D(3,7,8,9)             25.7028         calculate D2E/DX2 analytically  !
 ! D35   D(3,7,8,10)          -174.7702         calculate D2E/DX2 analytically  !
 ! D36   D(11,7,8,9)          -169.3539         calculate D2E/DX2 analytically  !
 ! D37   D(11,7,8,10)           -9.8269         calculate D2E/DX2 analytically  !
 --------------------------------------------------------------------------------
 Trust Radius=3.00D-01 FncErr=1.00D-07 GrdErr=1.00D-06 EigMax=2.50D+02 EigMin=1.00D-04
 Number of steps in this run=     96 maximum allowed number of steps=    120.
 Search for a saddle point of order  1.
 GradGradGradGradGradGradGradGradGradGradGradGradGradGradGradGradGradGrad

                          Input orientation:                          
 ---------------------------------------------------------------------
 Center     Atomic      Atomic             Coordinates (Angstroms)
 Number     Number       Type             X           Y           Z
 ---------------------------------------------------------------------
      1          6           0       -1.525842   -0.769594   -0.556985
      2          6           0       -1.525834    0.769603   -0.556987
      3          6           0       -0.654722    1.092996    0.650832
      4          6           0       -0.654729   -1.092992    0.650833
      5          6           0        0.686313   -1.455203    0.566786
      6          6           0        1.495902   -1.220776   -0.521834
      7          6           0        0.686322    1.455198    0.566787
      8          6           0        1.495911    1.220767   -0.521832
      9          1           0        1.084305    1.117496   -1.514941
     10          1           0        2.550174    1.457999   -0.475884
     11          1           0        1.172561    1.723792    1.500563
     12          1           0       -1.175151    1.338612    1.569265
     13          1           0       -2.526189    1.189429   -0.436131
     14          1           0       -1.115630    1.192976   -1.475672
     15          1           0       -2.526200   -1.189410   -0.436125
     16          1           0       -1.115644   -1.192973   -1.475670
     17          1           0       -1.175159   -1.338605    1.569267
     18          1           0        1.172551   -1.723801    1.500561
     19          1           0        1.084295   -1.117500   -1.514942
     20          1           0        2.550163   -1.458016   -0.475888
 ---------------------------------------------------------------------
                    Distance matrix (angstroms):
                    1          2          3          4          5
     1  C    0.000000
     2  C    1.539197   0.000000
     3  C    2.384725   1.523892   0.000000
     4  C    1.523893   2.384725   2.185988   0.000000
     5  C    2.574209   3.332600   2.880756   1.391637   0.000000
     6  C    3.055444   3.618526   3.369550   2.452894   1.376766
     7  C    3.332601   2.574207   1.391637   2.880756   2.910401
     8  C    3.618531   3.055442   2.452894   3.369551   3.000226
     9  H    3.360306   2.802058   2.777659   3.549799   3.333281
    10  H    4.645714   4.134526   3.416734   4.248347   3.612186
    11  H    4.210921   3.524957   2.111613   3.463423   3.348789
    12  H    3.014707   2.228833   1.083832   2.650859   3.503629
    13  H    2.202969   1.091591   2.166374   3.145361   4.280197
    14  H    2.205434   1.091556   2.178176   3.155963   3.798879
    15  H    1.091590   2.202969   3.145359   2.166374   3.375902
    16  H    1.091556   2.205434   3.155965   2.178177   2.736319
    17  H    2.228834   3.014709   2.650860   1.083833   2.117461
    18  H    3.524958   4.210920   3.463425   2.111613   1.086512
    19  H    2.802059   3.360299   3.549796   2.777658   2.146165
    20  H    4.134528   4.645709   4.248347   3.416735   2.135676
                    6          7          8          9         10
     6  C    0.000000
     7  C    3.000225   0.000000
     8  C    2.441543   1.376766   0.000000
     9  H    2.573556   2.146165   1.079977   0.000000
    10  H    2.879138   2.135677   1.081601   1.828757   0.000000
    11  H    3.586798   1.086512   2.108950   3.077117   2.423800
    12  H    4.249434   2.117460   3.394281   3.829668   4.251463
    13  H    4.689739   3.375901   4.023135   3.768909   5.083618
    14  H    3.681862   2.736317   2.780419   2.201580   3.808928
    15  H    4.023137   4.280196   4.689742   4.418303   5.725376
    16  H    2.780422   3.798884   3.681870   3.190546   4.633082
    17  H    3.394283   3.503629   4.249435   4.544221   5.087410
    18  H    2.108950   3.348789   3.586797   4.144154   3.990994
    19  H    1.079977   3.333280   2.573555   2.234996   3.140324
    20  H    1.081601   3.612186   2.879138   3.140324   2.916015
                   11         12         13         14         15
    11  H    0.000000
    12  H    2.380091   0.000000
    13  H    4.209166   2.422637   0.000000
    14  H    3.791511   3.048999   1.752237   0.000000
    15  H    5.091006   3.498259   2.378839   2.957385   0.000000
    16  H    4.754089   3.960315   2.957384   2.385949   1.752237
    17  H    3.859376   2.677217   3.498265   3.960316   2.422637
    18  H    3.447593   3.859378   5.091008   4.754085   4.209167
    19  H    4.144153   4.544218   4.418297   3.190535   3.768911
    20  H    3.990996   5.087410   5.725373   4.633073   5.083620
                   16         17         18         19         20
    16  H    0.000000
    17  H    3.048999   0.000000
    18  H    3.791512   2.380092   0.000000
    19  H    2.201584   3.829669   3.077117   0.000000
    20  H    3.808931   4.251464   2.423800   1.828757   0.000000
 Stoichiometry    C8H12
 Framework group  C1[X(C8H12)]
 Deg. of freedom    54
 Full point group                 C1      NOp   1
 Largest Abelian subgroup         C1      NOp   1
 Largest concise Abelian subgroup C1      NOp   1
                         Standard orientation:                         
 ---------------------------------------------------------------------
 Center     Atomic      Atomic             Coordinates (Angstroms)
 Number     Number       Type             X           Y           Z
 ---------------------------------------------------------------------
      1          6           0        1.525842    0.769594   -0.556985
      2          6           0        1.525834   -0.769603   -0.556987
      3          6           0        0.654722   -1.092996    0.650832
      4          6           0        0.654729    1.092992    0.650833
      5          6           0       -0.686313    1.455203    0.566786
      6          6           0       -1.495902    1.220775   -0.521834
      7          6           0       -0.686321   -1.455198    0.566787
      8          6           0       -1.495911   -1.220768   -0.521832
      9          1           0       -1.084305   -1.117496   -1.514941
     10          1           0       -2.550173   -1.458000   -0.475884
     11          1           0       -1.172560   -1.723793    1.500563
     12          1           0        1.175151   -1.338612    1.569265
     13          1           0        2.526189   -1.189428   -0.436131
     14          1           0        1.115630   -1.192976   -1.475672
     15          1           0        2.526200    1.189411   -0.436125
     16          1           0        1.115644    1.192973   -1.475670
     17          1           0        1.175159    1.338605    1.569267
     18          1           0       -1.172552    1.723800    1.500561
     19          1           0       -1.084295    1.117500   -1.514942
     20          1           0       -2.550163    1.458015   -0.475888
 ---------------------------------------------------------------------
 Rotational constants (GHZ):           2.4921688           2.3101022           1.5833666
 Standard basis: def2TZVP (5D, 7F)
 There are   360 symmetry adapted cartesian basis functions of A   symmetry.
 There are   320 symmetry adapted basis functions of A   symmetry.
   320 basis functions,   504 primitive gaussians,   360 cartesian basis functions
    30 alpha electrons       30 beta electrons
       nuclear repulsion energy       368.2317326157 Hartrees.
 NAtoms=   20 NActive=   20 NUniq=   20 SFac= 1.00D+00 NAtFMM=   60 NAOKFM=F Big=F
 Integral buffers will be    131072 words long.
 Raffenetti 2 integral format.
 Two-electron integral symmetry is turned on.
 One-electron integrals computed using PRISM.
   1 Symmetry operations used in ECPInt.
 ECPInt:  NShTT=    9316 NPrTT=   27240 LenC2=    9239 LenP2D=   22136.
 LDataN:  DoStor=T MaxTD1= 6 Len=  172
 NBasis=   320 RedAO= T EigKep=  2.55D-05  NBF=   320
 NBsUse=   320 1.00D-06 EigRej= -1.00D+00 NBFU=   320
 ExpMin= 9.52D-02 ExpMax= 1.36D+04 ExpMxC= 4.63D+02 IAcc=3 IRadAn=         5 AccDes= 0.00D+00
 Harris functional with IExCor=  402 and IRadAn=       5 diagonalized for initial guess.
 HarFok:  IExCor=  402 AccDes= 0.00D+00 IRadAn=         5 IDoV= 1 UseB2=F ITyADJ=14
 ICtDFT=  3500011 ScaDFX=  1.000000  1.000000  1.000000  1.000000
 FoFCou: FMM=F IPFlag=           0 FMFlag=      100000 FMFlg1=           0
         NFxFlg=           0 DoJE=T BraDBF=F KetDBF=T FulRan=T
         wScrn=  0.000000 ICntrl=       500 IOpCl=  0 I1Cent=   200000004 NGrid=           0
         NMat0=    1 NMatS0=      1 NMatT0=    0 NMatD0=    1 NMtDS0=    0 NMtDT0=    0
 Petite list used in FoFCou.
 Requested convergence on RMS density matrix=1.00D-08 within 128 cycles.
 Requested convergence on MAX density matrix=1.00D-06.
 Requested convergence on             energy=1.00D-06.
 No special actions if energy rises.
 Integral accuracy reduced to 1.0D-05 until final iterations.
 Initial convergence to 1.0D-05 achieved.  Increase integral accuracy.
 SCF Done:  E(RB3LYP) =  -312.079787613     A.U. after   14 cycles
            NFock= 14  Conv=0.39D-08     -V/T= 2.0056
 DoSCS=F DFT=T ScalE2(SS,OS)=  1.000000  1.000000
 Range of M.O.s used for correlation:     1   320
 NBasis=   320 NAE=    30 NBE=    30 NFC=     0 NFV=     0
 NROrb=    320 NOA=    30 NOB=    30 NVA=   290 NVB=   290

 **** Warning!!: The largest alpha MO coefficient is  0.40333704D+02

   1 Symmetry operations used in ECPInt.
 ECPInt:  NShTT=    9316 NPrTT=   27240 LenC2=    9239 LenP2D=   22136.
 LDataN:  DoStor=T MaxTD1= 7 Len=  274
 Symmetrizing basis deriv contribution to polar:
 IMax=3 JMax=2 DiffMx= 0.00D+00
 G2DrvN: will do    21 centers at a time, making    1 passes.
 Calling FoFCou, ICntrl=  3107 FMM=F I1Cent=   0 AccDes= 0.00D+00.
 End of G2Drv F.D. properties file   721 does not exist.
 End of G2Drv F.D. properties file   722 does not exist.
 End of G2Drv F.D. properties file   788 does not exist.
          IDoAtm=11111111111111111111
          Differentiating once with respect to nuclear coordinates.
 Keep R1 ints in memory in canonical form, NReq=1342483740.
          There are    63 degrees of freedom in the 1st order CPHF.  IDoFFX=6 NUNeed=     0.
     57 vectors produced by pass  0 Test12= 1.38D-14 1.59D-09 XBig12= 9.71D-02 1.22D-01.
 AX will form    57 AO Fock derivatives at one time.
     57 vectors produced by pass  1 Test12= 1.38D-14 1.59D-09 XBig12= 1.70D-02 4.50D-02.
     57 vectors produced by pass  2 Test12= 1.38D-14 1.59D-09 XBig12= 1.97D-04 2.39D-03.
     57 vectors produced by pass  3 Test12= 1.38D-14 1.59D-09 XBig12= 6.46D-07 8.99D-05.
     57 vectors produced by pass  4 Test12= 1.38D-14 1.59D-09 XBig12= 9.92D-10 3.61D-06.
     44 vectors produced by pass  5 Test12= 1.38D-14 1.59D-09 XBig12= 1.34D-12 1.27D-07.
     12 vectors produced by pass  6 Test12= 1.38D-14 1.59D-09 XBig12= 2.00D-15 5.63D-09.
 InvSVY:  IOpt=1 It=  1 EMax= 3.89D-16
 Solved reduced A of dimension   341 with    63 vectors.
 End of Minotr F.D. properties file   721 does not exist.
 End of Minotr F.D. properties file   722 does not exist.
 End of Minotr F.D. properties file   788 does not exist.
   1 Symmetry operations used in ECPInt.
 ECPInt:  NShTT=    9316 NPrTT=   27240 LenC2=    9239 LenP2D=   22136.
 LDataN:  DoStor=T MaxTD1= 8 Len=  415
 Calling FoFJK, ICntrl=    100147 FMM=F ISym2X=0 I1Cent= 0 IOpClX= 0 NMat=1 NMatS=1 NMatT=0.
 ***** Axes restored to original set *****
 -------------------------------------------------------------------
 Center     Atomic                   Forces (Hartrees/Bohr)
 Number     Number              X              Y              Z
 -------------------------------------------------------------------
      1        6          -0.000000525   -0.000004227   -0.000001406
      2        6          -0.000001520    0.000004394   -0.000001479
      3        6           0.000011392    0.000002110   -0.000000362
      4        6           0.000011225   -0.000002328   -0.000000252
      5        6          -0.000012624   -0.000003130   -0.000005748
      6        6          -0.000002053    0.000002665    0.000007393
      7        6          -0.000012097    0.000003353   -0.000005490
      8        6          -0.000001798   -0.000002675    0.000007212
      9        1           0.000002810    0.000003339    0.000001432
     10        1          -0.000001574    0.000000517    0.000000853
     11        1          -0.000001736   -0.000000307   -0.000000153
     12        1           0.000001203   -0.000000647   -0.000000458
     13        1           0.000002521   -0.000000224   -0.000002231
     14        1           0.000000679   -0.000000833    0.000000695
     15        1           0.000002185    0.000000147   -0.000002168
     16        1           0.000000625    0.000000762    0.000000708
     17        1           0.000001496    0.000000721   -0.000000774
     18        1          -0.000001621    0.000000254   -0.000000003
     19        1           0.000002791   -0.000003373    0.000001390
     20        1          -0.000001380   -0.000000520    0.000000839
 -------------------------------------------------------------------
 Cartesian Forces:  Max     0.000012624 RMS     0.000003898
 FormGI is forming the generalized inverse of G from B-inverse, IUseBI=4.

 GradGradGradGradGradGradGradGradGradGradGradGradGradGradGradGradGradGrad
 Berny optimization.
 Internal  Forces:  Max     0.000015431 RMS     0.000004409
 Search for a saddle point.
 Step number   1 out of a maximum of   96
 All quantities printed in internal units (Hartrees-Bohrs-Radians)
 Swapping is turned off.
 Second derivative matrix not updated -- analytic derivatives used.
 ITU=  0
     Eigenvalues ---   -0.09434   0.00061   0.01355   0.01553   0.01906
     Eigenvalues ---    0.02059   0.02220   0.02449   0.03184   0.03490
     Eigenvalues ---    0.03754   0.04232   0.04297   0.04412   0.04851
     Eigenvalues ---    0.06899   0.07006   0.07774   0.08277   0.09821
     Eigenvalues ---    0.10626   0.11208   0.11386   0.12110   0.12213
     Eigenvalues ---    0.12603   0.13445   0.14236   0.17566   0.18538
     Eigenvalues ---    0.21855   0.22182   0.26532   0.26697   0.29152
     Eigenvalues ---    0.30537   0.32740   0.33034   0.33568   0.33921
     Eigenvalues ---    0.34801   0.34859   0.35162   0.35323   0.35941
     Eigenvalues ---    0.36096   0.36287   0.36880   0.41379   0.43298
     Eigenvalues ---    0.52981   0.58163   0.60118   1.49510
 Eigenvectors required to have negative eigenvalues:
                          D16       D10       D34       D30       D20
   1                    0.31887  -0.31887  -0.25412   0.25412   0.23141
                          D14       D18       D12       D24       D28
   1                   -0.23141   0.19685  -0.19685   0.18570  -0.18570
 RFO step:  Lambda0=7.613493169D-13 Lambda= 0.00000000D+00.
 Linear search not attempted -- option 19 set.
 Iteration  1 RMS(Cart)=  0.00003462 RMS(Int)=  0.00000000
 Iteration  2 RMS(Cart)=  0.00000000 RMS(Int)=  0.00000000
 Variable       Old X    -DE/DX   Delta X   Delta X   Delta X     New X
                                 (Linear)    (Quad)   (Total)
    R1        2.90866   0.00001   0.00000   0.00001   0.00001   2.90867
    R2        2.87974   0.00000   0.00000  -0.00000  -0.00000   2.87974
    R3        2.06281  -0.00000   0.00000  -0.00001  -0.00001   2.06280
    R4        2.06274  -0.00000   0.00000  -0.00001  -0.00001   2.06274
    R5        2.87974   0.00000   0.00000  -0.00000  -0.00000   2.87974
    R6        2.06281  -0.00000   0.00000  -0.00001  -0.00001   2.06280
    R7        2.06274  -0.00000   0.00000  -0.00001  -0.00001   2.06274
    R8        2.62981  -0.00001   0.00000  -0.00002  -0.00002   2.62979
    R9        2.04815  -0.00000   0.00000  -0.00000  -0.00000   2.04814
   R10        2.62981  -0.00001   0.00000  -0.00003  -0.00003   2.62979
   R11        2.04815  -0.00000   0.00000  -0.00000  -0.00000   2.04814
   R12        2.60171  -0.00001   0.00000  -0.00001  -0.00001   2.60170
   R13        2.05321  -0.00000   0.00000  -0.00000  -0.00000   2.05321
   R14        2.04086  -0.00000   0.00000  -0.00000  -0.00000   2.04086
   R15        2.04393  -0.00000   0.00000  -0.00000  -0.00000   2.04393
   R16        2.60171  -0.00001   0.00000  -0.00001  -0.00001   2.60170
   R17        2.05321  -0.00000   0.00000  -0.00000  -0.00000   2.05321
   R18        2.04086  -0.00000   0.00000  -0.00000  -0.00000   2.04086
   R19        2.04393  -0.00000   0.00000  -0.00000  -0.00000   2.04393
    A1        1.78464   0.00002   0.00000  -0.00001  -0.00001   1.78463
    A2        1.96557  -0.00001   0.00000   0.00001   0.00001   1.96558
    A3        1.96911  -0.00000   0.00000  -0.00001  -0.00001   1.96910
    A4        1.93316  -0.00000   0.00000   0.00001   0.00001   1.93317
    A5        1.94974  -0.00001   0.00000  -0.00001  -0.00001   1.94973
    A6        1.86335   0.00000   0.00000   0.00000   0.00000   1.86335
    A7        1.78464   0.00002   0.00000  -0.00001  -0.00001   1.78463
    A8        1.96557  -0.00001   0.00000   0.00001   0.00001   1.96558
    A9        1.96911  -0.00000   0.00000  -0.00001  -0.00001   1.96910
   A10        1.93316  -0.00000   0.00000   0.00001   0.00001   1.93317
   A11        1.94974  -0.00001   0.00000  -0.00001  -0.00001   1.94973
   A12        1.86335   0.00000   0.00000   0.00000   0.00000   1.86335
   A13        2.16304   0.00000   0.00000   0.00000   0.00000   2.16304
   A14        2.03224   0.00000   0.00000   0.00001   0.00001   2.03225
   A15        2.04307  -0.00000   0.00000  -0.00002  -0.00002   2.04306
   A16        2.16304   0.00000   0.00000  -0.00000  -0.00000   2.16304
   A17        2.03224   0.00000   0.00000   0.00001   0.00001   2.03225
   A18        2.04307  -0.00000   0.00000  -0.00002  -0.00002   2.04306
   A19        2.17742   0.00001   0.00000   0.00002   0.00002   2.17743
   A20        2.03051  -0.00000   0.00000  -0.00001  -0.00001   2.03050
   A21        2.04709  -0.00000   0.00000  -0.00002  -0.00002   2.04707
   A22        2.11680   0.00000   0.00000   0.00001   0.00001   2.11681
   A23        2.09698  -0.00000   0.00000  -0.00001  -0.00001   2.09697
   A24        2.01698  -0.00000   0.00000  -0.00002  -0.00002   2.01696
   A25        2.17742   0.00001   0.00000   0.00002   0.00002   2.17743
   A26        2.03051  -0.00000   0.00000  -0.00001  -0.00001   2.03050
   A27        2.04709  -0.00000   0.00000  -0.00001  -0.00001   2.04707
   A28        2.11680   0.00000   0.00000   0.00001   0.00001   2.11681
   A29        2.09698  -0.00000   0.00000  -0.00001  -0.00001   2.09697
   A30        2.01698  -0.00000   0.00000  -0.00002  -0.00002   2.01696
    D1       -0.00000   0.00000   0.00000   0.00000   0.00000   0.00000
    D2       -2.07540  -0.00000   0.00000  -0.00001  -0.00001  -2.07541
    D3        2.09681   0.00000   0.00000  -0.00002  -0.00002   2.09680
    D4        2.07539   0.00000   0.00000   0.00002   0.00002   2.07541
    D5       -0.00000  -0.00000   0.00000   0.00000   0.00000   0.00000
    D6       -2.11098   0.00000   0.00000  -0.00000  -0.00000  -2.11098
    D7       -2.09682  -0.00000   0.00000   0.00002   0.00002  -2.09680
    D8        2.11097  -0.00000   0.00000   0.00001   0.00001   2.11098
    D9       -0.00000  -0.00000   0.00000   0.00000   0.00000   0.00000
   D10       -1.74660  -0.00001   0.00000  -0.00004  -0.00004  -1.74665
   D11        1.72238  -0.00000   0.00000  -0.00003  -0.00003   1.72236
   D12        2.43847  -0.00001   0.00000  -0.00006  -0.00006   2.43841
   D13       -0.37574  -0.00000   0.00000  -0.00004  -0.00004  -0.37578
   D14        0.36367  -0.00000   0.00000  -0.00006  -0.00006   0.36360
   D15       -2.45054   0.00000   0.00000  -0.00004  -0.00004  -2.45058
   D16        1.74661   0.00001   0.00000   0.00004   0.00004   1.74664
   D17       -1.72238   0.00000   0.00000   0.00002   0.00002  -1.72236
   D18       -2.43846   0.00001   0.00000   0.00006   0.00006  -2.43841
   D19        0.37574   0.00000   0.00000   0.00004   0.00004   0.37578
   D20       -0.36366   0.00000   0.00000   0.00006   0.00006  -0.36361
   D21        2.45054  -0.00000   0.00000   0.00004   0.00004   2.45058
   D22       -0.32973  -0.00000   0.00000  -0.00007  -0.00007  -0.32980
   D23        3.07240  -0.00000   0.00000  -0.00003  -0.00003   3.07238
   D24        3.14111   0.00000   0.00000  -0.00006  -0.00006   3.14105
   D25        0.26006   0.00000   0.00000  -0.00001  -0.00001   0.26005
   D26        0.32973  -0.00000   0.00000   0.00007   0.00007   0.32980
   D27       -3.07240   0.00000   0.00000   0.00002   0.00002  -3.07238
   D28       -3.14111  -0.00000   0.00000   0.00006   0.00006  -3.14105
   D29       -0.26006  -0.00000   0.00000   0.00001   0.00001  -0.26005
   D30       -0.44860  -0.00000   0.00000  -0.00009  -0.00009  -0.44868
   D31        3.05032   0.00000   0.00000  -0.00002  -0.00002   3.05029
   D32        2.95579  -0.00000   0.00000  -0.00004  -0.00004   2.95575
   D33        0.17151   0.00000   0.00000   0.00002   0.00002   0.17154
   D34        0.44860   0.00000   0.00000   0.00008   0.00008   0.44868
   D35       -3.05032  -0.00000   0.00000   0.00002   0.00002  -3.05029
   D36       -2.95578   0.00000   0.00000   0.00004   0.00004  -2.95575
   D37       -0.17151  -0.00000   0.00000  -0.00002  -0.00002  -0.17154
         Item               Value     Threshold  Converged?
 Maximum Force            0.000015     0.000450     YES
 RMS     Force            0.000004     0.000300     YES
 Maximum Displacement     0.000100     0.001800     YES
 RMS     Displacement     0.000035     0.001200     YES
 Predicted change in Energy=-1.593300D-09
 Optimization completed.
    -- Stationary point found.
                           ----------------------------
                           !   Optimized Parameters   !
                           ! (Angstroms and Degrees)  !
 --------------------------                            --------------------------
 ! Name  Definition              Value          Derivative Info.                !
 --------------------------------------------------------------------------------
 ! R1    R(1,2)                  1.5392         -DE/DX =    0.0                 !
 ! R2    R(1,4)                  1.5239         -DE/DX =    0.0                 !
 ! R3    R(1,15)                 1.0916         -DE/DX =    0.0                 !
 ! R4    R(1,16)                 1.0916         -DE/DX =    0.0                 !
 ! R5    R(2,3)                  1.5239         -DE/DX =    0.0                 !
 ! R6    R(2,13)                 1.0916         -DE/DX =    0.0                 !
 ! R7    R(2,14)                 1.0916         -DE/DX =    0.0                 !
 ! R8    R(3,7)                  1.3916         -DE/DX =    0.0                 !
 ! R9    R(3,12)                 1.0838         -DE/DX =    0.0                 !
 ! R10   R(4,5)                  1.3916         -DE/DX =    0.0                 !
 ! R11   R(4,17)                 1.0838         -DE/DX =    0.0                 !
 ! R12   R(5,6)                  1.3768         -DE/DX =    0.0                 !
 ! R13   R(5,18)                 1.0865         -DE/DX =    0.0                 !
 ! R14   R(6,19)                 1.08           -DE/DX =    0.0                 !
 ! R15   R(6,20)                 1.0816         -DE/DX =    0.0                 !
 ! R16   R(7,8)                  1.3768         -DE/DX =    0.0                 !
 ! R17   R(7,11)                 1.0865         -DE/DX =    0.0                 !
 ! R18   R(8,9)                  1.08           -DE/DX =    0.0                 !
 ! R19   R(8,10)                 1.0816         -DE/DX =    0.0                 !
 ! A1    A(2,1,4)              102.2523         -DE/DX =    0.0                 !
 ! A2    A(2,1,15)             112.6187         -DE/DX =    0.0                 !
 ! A3    A(2,1,16)             112.8217         -DE/DX =    0.0                 !
 ! A4    A(4,1,15)             110.7621         -DE/DX =    0.0                 !
 ! A5    A(4,1,16)             111.7116         -DE/DX =    0.0                 !
 ! A6    A(15,1,16)            106.7621         -DE/DX =    0.0                 !
 ! A7    A(1,2,3)              102.2523         -DE/DX =    0.0                 !
 ! A8    A(1,2,13)             112.6186         -DE/DX =    0.0                 !
 ! A9    A(1,2,14)             112.8217         -DE/DX =    0.0                 !
 ! A10   A(3,2,13)             110.7621         -DE/DX =    0.0                 !
 ! A11   A(3,2,14)             111.7116         -DE/DX =    0.0                 !
 ! A12   A(13,2,14)            106.7621         -DE/DX =    0.0                 !
 ! A13   A(2,3,7)              123.9329         -DE/DX =    0.0                 !
 ! A14   A(2,3,12)             116.4388         -DE/DX =    0.0                 !
 ! A15   A(7,3,12)             117.0593         -DE/DX =    0.0                 !
 ! A16   A(1,4,5)              123.9329         -DE/DX =    0.0                 !
 ! A17   A(1,4,17)             116.4387         -DE/DX =    0.0                 !
 ! A18   A(5,4,17)             117.0593         -DE/DX =    0.0                 !
 ! A19   A(4,5,6)              124.7568         -DE/DX =    0.0                 !
 ! A20   A(4,5,18)             116.3396         -DE/DX =    0.0                 !
 ! A21   A(6,5,18)             117.2896         -DE/DX =    0.0                 !
 ! A22   A(5,6,19)             121.2836         -DE/DX =    0.0                 !
 ! A23   A(5,6,20)             120.148          -DE/DX =    0.0                 !
 ! A24   A(19,6,20)            115.5647         -DE/DX =    0.0                 !
 ! A25   A(3,7,8)              124.7568         -DE/DX =    0.0                 !
 ! A26   A(3,7,11)             116.3396         -DE/DX =    0.0                 !
 ! A27   A(8,7,11)             117.2896         -DE/DX =    0.0                 !
 ! A28   A(7,8,9)              121.2836         -DE/DX =    0.0                 !
 ! A29   A(7,8,10)             120.148          -DE/DX =    0.0                 !
 ! A30   A(9,8,10)             115.5647         -DE/DX =    0.0                 !
 ! D1    D(4,1,2,3)             -0.0002         -DE/DX =    0.0                 !
 ! D2    D(4,1,2,13)          -118.9116         -DE/DX =    0.0                 !
 ! D3    D(4,1,2,14)           120.1385         -DE/DX =    0.0                 !
 ! D4    D(15,1,2,3)           118.9112         -DE/DX =    0.0                 !
 ! D5    D(15,1,2,13)           -0.0002         -DE/DX =    0.0                 !
 ! D6    D(15,1,2,14)         -120.9501         -DE/DX =    0.0                 !
 ! D7    D(16,1,2,3)          -120.1388         -DE/DX =    0.0                 !
 ! D8    D(16,1,2,13)          120.9498         -DE/DX =    0.0                 !
 ! D9    D(16,1,2,14)           -0.0001         -DE/DX =    0.0                 !
 ! D10   D(2,1,4,5)           -100.0728         -DE/DX =    0.0                 !
 ! D11   D(2,1,4,17)            98.6852         -DE/DX =    0.0                 !
 ! D12   D(15,1,4,5)           139.7138         -DE/DX =    0.0                 !
 ! D13   D(15,1,4,17)          -21.5282         -DE/DX =    0.0                 !
 ! D14   D(16,1,4,5)            20.8366         -DE/DX =    0.0                 !
 ! D15   D(16,1,4,17)         -140.4054         -DE/DX =    0.0                 !
 ! D16   D(1,2,3,7)            100.0731         -DE/DX =    0.0                 !
 ! D17   D(1,2,3,12)           -98.6848         -DE/DX =    0.0                 !
 ! D18   D(13,2,3,7)          -139.7136         -DE/DX =    0.0                 !
 ! D19   D(13,2,3,12)           21.5285         -DE/DX =    0.0                 !
 ! D20   D(14,2,3,7)           -20.8364         -DE/DX =    0.0                 !
 ! D21   D(14,2,3,12)          140.4056         -DE/DX =    0.0                 !
 ! D22   D(2,3,7,8)            -18.8923         -DE/DX =    0.0                 !
 ! D23   D(2,3,7,11)           176.0358         -DE/DX =    0.0                 !
 ! D24   D(12,3,7,8)           179.9722         -DE/DX =    0.0                 !
 ! D25   D(12,3,7,11)           14.9003         -DE/DX =    0.0                 !
 ! D26   D(1,4,5,6)             18.8924         -DE/DX =    0.0                 !
 ! D27   D(1,4,5,18)          -176.0357         -DE/DX =    0.0                 !
 ! D28   D(17,4,5,6)          -179.9722         -DE/DX =    0.0                 !
 ! D29   D(17,4,5,18)          -14.9003         -DE/DX =    0.0                 !
 ! D30   D(4,5,6,19)           -25.7027         -DE/DX =    0.0                 !
 ! D31   D(4,5,6,20)           174.7703         -DE/DX =    0.0                 !
 ! D32   D(18,5,6,19)          169.354          -DE/DX =    0.0                 !
 ! D33   D(18,5,6,20)            9.827          -DE/DX =    0.0                 !
 ! D34   D(3,7,8,9)             25.7028         -DE/DX =    0.0                 !
 ! D35   D(3,7,8,10)          -174.7702         -DE/DX =    0.0                 !
 ! D36   D(11,7,8,9)          -169.3539         -DE/DX =    0.0                 !
 ! D37   D(11,7,8,10)           -9.8269         -DE/DX =    0.0                 !
 --------------------------------------------------------------------------------
 GradGradGradGradGradGradGradGradGradGradGradGradGradGradGradGradGradGrad

                          Input orientation:                          
 ---------------------------------------------------------------------
 Center     Atomic      Atomic             Coordinates (Angstroms)
 Number     Number       Type             X           Y           Z
 ---------------------------------------------------------------------
      1          6           0       -1.525842   -0.769594   -0.556985
      2          6           0       -1.525834    0.769603   -0.556987
      3          6           0       -0.654722    1.092996    0.650832
      4          6           0       -0.654729   -1.092992    0.650833
      5          6           0        0.686313   -1.455203    0.566786
      6          6           0        1.495902   -1.220776   -0.521834
      7          6           0        0.686322    1.455198    0.566787
      8          6           0        1.495911    1.220767   -0.521832
      9          1           0        1.084305    1.117496   -1.514941
     10          1           0        2.550174    1.457999   -0.475884
     11          1           0        1.172561    1.723792    1.500563
     12          1           0       -1.175151    1.338612    1.569265
     13          1           0       -2.526189    1.189429   -0.436131
     14          1           0       -1.115630    1.192976   -1.475672
     15          1           0       -2.526200   -1.189410   -0.436125
     16          1           0       -1.115644   -1.192973   -1.475670
     17          1           0       -1.175159   -1.338605    1.569267
     18          1           0        1.172551   -1.723801    1.500561
     19          1           0        1.084295   -1.117500   -1.514942
     20          1           0        2.550163   -1.458016   -0.475888
 ---------------------------------------------------------------------
                    Distance matrix (angstroms):
                    1          2          3          4          5
     1  C    0.000000
     2  C    1.539197   0.000000
     3  C    2.384725   1.523892   0.000000
     4  C    1.523893   2.384725   2.185988   0.000000
     5  C    2.574209   3.332600   2.880756   1.391637   0.000000
     6  C    3.055444   3.618526   3.369550   2.452894   1.376766
     7  C    3.332601   2.574207   1.391637   2.880756   2.910401
     8  C    3.618531   3.055442   2.452894   3.369551   3.000226
     9  H    3.360306   2.802058   2.777659   3.549799   3.333281
    10  H    4.645714   4.134526   3.416734   4.248347   3.612186
    11  H    4.210921   3.524957   2.111613   3.463423   3.348789
    12  H    3.014707   2.228833   1.083832   2.650859   3.503629
    13  H    2.202969   1.091591   2.166374   3.145361   4.280197
    14  H    2.205434   1.091556   2.178176   3.155963   3.798879
    15  H    1.091590   2.202969   3.145359   2.166374   3.375902
    16  H    1.091556   2.205434   3.155965   2.178177   2.736319
    17  H    2.228834   3.014709   2.650860   1.083833   2.117461
    18  H    3.524958   4.210920   3.463425   2.111613   1.086512
    19  H    2.802059   3.360299   3.549796   2.777658   2.146165
    20  H    4.134528   4.645709   4.248347   3.416735   2.135676
                    6          7          8          9         10
     6  C    0.000000
     7  C    3.000225   0.000000
     8  C    2.441543   1.376766   0.000000
     9  H    2.573556   2.146165   1.079977   0.000000
    10  H    2.879138   2.135677   1.081601   1.828757   0.000000
    11  H    3.586798   1.086512   2.108950   3.077117   2.423800
    12  H    4.249434   2.117460   3.394281   3.829668   4.251463
    13  H    4.689739   3.375901   4.023135   3.768909   5.083618
    14  H    3.681862   2.736317   2.780419   2.201580   3.808928
    15  H    4.023137   4.280196   4.689742   4.418303   5.725376
    16  H    2.780422   3.798884   3.681870   3.190546   4.633082
    17  H    3.394283   3.503629   4.249435   4.544221   5.087410
    18  H    2.108950   3.348789   3.586797   4.144154   3.990994
    19  H    1.079977   3.333280   2.573555   2.234996   3.140324
    20  H    1.081601   3.612186   2.879138   3.140324   2.916015
                   11         12         13         14         15
    11  H    0.000000
    12  H    2.380091   0.000000
    13  H    4.209166   2.422637   0.000000
    14  H    3.791511   3.048999   1.752237   0.000000
    15  H    5.091006   3.498259   2.378839   2.957385   0.000000
    16  H    4.754089   3.960315   2.957384   2.385949   1.752237
    17  H    3.859376   2.677217   3.498265   3.960316   2.422637
    18  H    3.447593   3.859378   5.091008   4.754085   4.209167
    19  H    4.144153   4.544218   4.418297   3.190535   3.768911
    20  H    3.990996   5.087410   5.725373   4.633073   5.083620
                   16         17         18         19         20
    16  H    0.000000
    17  H    3.048999   0.000000
    18  H    3.791512   2.380092   0.000000
    19  H    2.201584   3.829669   3.077117   0.000000
    20  H    3.808931   4.251464   2.423800   1.828757   0.000000
 Stoichiometry    C8H12
 Framework group  C1[X(C8H12)]
 Deg. of freedom    54
 Full point group                 C1      NOp   1
 Largest Abelian subgroup         C1      NOp   1
 Largest concise Abelian subgroup C1      NOp   1
                         Standard orientation:                         
 ---------------------------------------------------------------------
 Center     Atomic      Atomic             Coordinates (Angstroms)
 Number     Number       Type             X           Y           Z
 ---------------------------------------------------------------------
      1          6           0        1.525842    0.769594   -0.556985
      2          6           0        1.525834   -0.769603   -0.556987
      3          6           0        0.654722   -1.092996    0.650832
      4          6           0        0.654729    1.092992    0.650833
      5          6           0       -0.686313    1.455203    0.566786
      6          6           0       -1.495902    1.220775   -0.521834
      7          6           0       -0.686321   -1.455198    0.566787
      8          6           0       -1.495911   -1.220768   -0.521832
      9          1           0       -1.084305   -1.117496   -1.514941
     10          1           0       -2.550173   -1.458000   -0.475884
     11          1           0       -1.172560   -1.723793    1.500563
     12          1           0        1.175151   -1.338612    1.569265
     13          1           0        2.526189   -1.189428   -0.436131
     14          1           0        1.115630   -1.192976   -1.475672
     15          1           0        2.526200    1.189411   -0.436125
     16          1           0        1.115644    1.192973   -1.475670
     17          1           0        1.175159    1.338605    1.569267
     18          1           0       -1.172552    1.723800    1.500561
     19          1           0       -1.084295    1.117500   -1.514942
     20          1           0       -2.550163    1.458015   -0.475888
 ---------------------------------------------------------------------
 Rotational constants (GHZ):           2.4921688           2.3101022           1.5833666
 1\1\GINC-BHC0105\FTS\RB3LYP\def2TZVP\C8H12\DHANAWAY\10-Jun-2022\0\\# O
 pt=(TS, CalcFC, noeigentest) B3LYP/Def2TZVP freq=noraman pop=none\\ts_
 initalOpt\\0,1\C,-1.525842,-0.769594,-0.556985\C,-1.525834,0.769603,-0
 .556987\C,-0.654722,1.092996,0.650832\C,-0.654729,-1.092992,0.650833\C
 ,0.686313,-1.455203,0.566786\C,1.495902,-1.220776,-0.521834\C,0.686322
 ,1.455198,0.566787\C,1.495911,1.220767,-0.521832\H,1.084305,1.117496,-
 1.514941\H,2.550174,1.457999,-0.475884\H,1.172561,1.723792,1.500563\H,
 -1.175151,1.338612,1.569265\H,-2.526189,1.189429,-0.436131\H,-1.11563,
 1.192976,-1.475672\H,-2.5262,-1.18941,-0.436125\H,-1.115644,-1.192973,
 -1.47567\H,-1.175159,-1.338605,1.569267\H,1.172551,-1.723801,1.500561\
 H,1.084295,-1.1175,-1.514942\H,2.550163,-1.458016,-0.475888\\Version=E
 S64L-G16RevA.03\HF=-312.0797876\RMSD=3.935e-09\RMSF=3.898e-06\Dipole=-
 0.1733037,0.0000007,0.044218\Polar=0.,0.,0.,0.,0.,0.\PG=C01 [X(C8H12)]
 \\@


 REALITY IS FOR PEOPLE WHO CAN'T FACE SCIENCE FICTION.
 Job cpu time:       0 days  1 hours 56 minutes 51.0 seconds.
 Elapsed time:       0 days  0 hours  9 minutes 44.9 seconds.
 File lengths (MBytes):  RWF=    167 Int=      0 D2E=      0 Chk=     32 Scr=      1
 Normal termination of Gaussian 16 at Fri Jun 10 22:01:51 2022.
 Link1:  Proceeding to internal job step number  2.
 --------------------------------------------------------------------
 #N Geom=AllCheck Guess=TCheck SCRF=Check GenChk RB3LYP/def2TZVP Freq
 --------------------------------------------------------------------
 1/5=1,10=4,11=1,29=7,30=1,38=1,40=1/1,3;
 2/12=2,40=1/2;
 3/5=44,7=101,11=2,14=-4,25=1,30=1,70=2,71=2,74=-5,116=1,140=1/1,2,3;
 4/5=101/1;
 5/5=2,38=6,98=1/2;
 8/6=4,10=90,11=11/1;
 11/6=1,8=1,9=11,15=111,16=1/1,2,10;
 10/6=1/2;
 7/8=1,10=1,25=1/1,2,3,16;
 1/5=1,10=4,11=1,30=1/3;
 99//99;
 Structure from the checkpoint file:  "checkpoint.chk"
 ------------
 ts_initalOpt
 ------------
 Charge =  0 Multiplicity = 1
 Redundant internal coordinates found in file.  (old form).
 C,0,-1.525842,-0.769594,-0.556985
 C,0,-1.525834,0.769603,-0.556987
 C,0,-0.654722,1.092996,0.650832
 C,0,-0.654729,-1.092992,0.650833
 C,0,0.686313,-1.455203,0.566786
 C,0,1.495902,-1.220776,-0.521834
 C,0,0.686322,1.455198,0.566787
 C,0,1.495911,1.220767,-0.521832
 H,0,1.084305,1.117496,-1.514941
 H,0,2.550174,1.457999,-0.475884
 H,0,1.172561,1.723792,1.500563
 H,0,-1.175151,1.338612,1.569265
 H,0,-2.526189,1.189429,-0.436131
 H,0,-1.11563,1.192976,-1.475672
 H,0,-2.5262,-1.18941,-0.436125
 H,0,-1.115644,-1.192973,-1.47567
 H,0,-1.175159,-1.338605,1.569267
 H,0,1.172551,-1.723801,1.500561
 H,0,1.084295,-1.1175,-1.514942
 H,0,2.550163,-1.458016,-0.475888
 Recover connectivity data from disk.

 GradGradGradGradGradGradGradGradGradGradGradGradGradGradGradGradGradGrad
 Berny optimization.
 Initialization pass.
                           ----------------------------
                           !    Initial Parameters    !
                           ! (Angstroms and Degrees)  !
 --------------------------                            --------------------------
 ! Name  Definition              Value          Derivative Info.                !
 --------------------------------------------------------------------------------
 ! R1    R(1,2)                  1.5392         calculate D2E/DX2 analytically  !
 ! R2    R(1,4)                  1.5239         calculate D2E/DX2 analytically  !
 ! R3    R(1,15)                 1.0916         calculate D2E/DX2 analytically  !
 ! R4    R(1,16)                 1.0916         calculate D2E/DX2 analytically  !
 ! R5    R(2,3)                  1.5239         calculate D2E/DX2 analytically  !
 ! R6    R(2,13)                 1.0916         calculate D2E/DX2 analytically  !
 ! R7    R(2,14)                 1.0916         calculate D2E/DX2 analytically  !
 ! R8    R(3,7)                  1.3916         calculate D2E/DX2 analytically  !
 ! R9    R(3,12)                 1.0838         calculate D2E/DX2 analytically  !
 ! R10   R(4,5)                  1.3916         calculate D2E/DX2 analytically  !
 ! R11   R(4,17)                 1.0838         calculate D2E/DX2 analytically  !
 ! R12   R(5,6)                  1.3768         calculate D2E/DX2 analytically  !
 ! R13   R(5,18)                 1.0865         calculate D2E/DX2 analytically  !
 ! R14   R(6,19)                 1.08           calculate D2E/DX2 analytically  !
 ! R15   R(6,20)                 1.0816         calculate D2E/DX2 analytically  !
 ! R16   R(7,8)                  1.3768         calculate D2E/DX2 analytically  !
 ! R17   R(7,11)                 1.0865         calculate D2E/DX2 analytically  !
 ! R18   R(8,9)                  1.08           calculate D2E/DX2 analytically  !
 ! R19   R(8,10)                 1.0816         calculate D2E/DX2 analytically  !
 ! A1    A(2,1,4)              102.2523         calculate D2E/DX2 analytically  !
 ! A2    A(2,1,15)             112.6187         calculate D2E/DX2 analytically  !
 ! A3    A(2,1,16)             112.8217         calculate D2E/DX2 analytically  !
 ! A4    A(4,1,15)             110.7621         calculate D2E/DX2 analytically  !
 ! A5    A(4,1,16)             111.7116         calculate D2E/DX2 analytically  !
 ! A6    A(15,1,16)            106.7621         calculate D2E/DX2 analytically  !
 ! A7    A(1,2,3)              102.2523         calculate D2E/DX2 analytically  !
 ! A8    A(1,2,13)             112.6186         calculate D2E/DX2 analytically  !
 ! A9    A(1,2,14)             112.8217         calculate D2E/DX2 analytically  !
 ! A10   A(3,2,13)             110.7621         calculate D2E/DX2 analytically  !
 ! A11   A(3,2,14)             111.7116         calculate D2E/DX2 analytically  !
 ! A12   A(13,2,14)            106.7621         calculate D2E/DX2 analytically  !
 ! A13   A(2,3,7)              123.9329         calculate D2E/DX2 analytically  !
 ! A14   A(2,3,12)             116.4388         calculate D2E/DX2 analytically  !
 ! A15   A(7,3,12)             117.0593         calculate D2E/DX2 analytically  !
 ! A16   A(1,4,5)              123.9329         calculate D2E/DX2 analytically  !
 ! A17   A(1,4,17)             116.4387         calculate D2E/DX2 analytically  !
 ! A18   A(5,4,17)             117.0593         calculate D2E/DX2 analytically  !
 ! A19   A(4,5,6)              124.7568         calculate D2E/DX2 analytically  !
 ! A20   A(4,5,18)             116.3396         calculate D2E/DX2 analytically  !
 ! A21   A(6,5,18)             117.2896         calculate D2E/DX2 analytically  !
 ! A22   A(5,6,19)             121.2836         calculate D2E/DX2 analytically  !
 ! A23   A(5,6,20)             120.148          calculate D2E/DX2 analytically  !
 ! A24   A(19,6,20)            115.5647         calculate D2E/DX2 analytically  !
 ! A25   A(3,7,8)              124.7568         calculate D2E/DX2 analytically  !
 ! A26   A(3,7,11)             116.3396         calculate D2E/DX2 analytically  !
 ! A27   A(8,7,11)             117.2896         calculate D2E/DX2 analytically  !
 ! A28   A(7,8,9)              121.2836         calculate D2E/DX2 analytically  !
 ! A29   A(7,8,10)             120.148          calculate D2E/DX2 analytically  !
 ! A30   A(9,8,10)             115.5647         calculate D2E/DX2 analytically  !
 ! D1    D(4,1,2,3)             -0.0002         calculate D2E/DX2 analytically  !
 ! D2    D(4,1,2,13)          -118.9116         calculate D2E/DX2 analytically  !
 ! D3    D(4,1,2,14)           120.1385         calculate D2E/DX2 analytically  !
 ! D4    D(15,1,2,3)           118.9112         calculate D2E/DX2 analytically  !
 ! D5    D(15,1,2,13)           -0.0002         calculate D2E/DX2 analytically  !
 ! D6    D(15,1,2,14)         -120.9501         calculate D2E/DX2 analytically  !
 ! D7    D(16,1,2,3)          -120.1388         calculate D2E/DX2 analytically  !
 ! D8    D(16,1,2,13)          120.9498         calculate D2E/DX2 analytically  !
 ! D9    D(16,1,2,14)           -0.0001         calculate D2E/DX2 analytically  !
 ! D10   D(2,1,4,5)           -100.0728         calculate D2E/DX2 analytically  !
 ! D11   D(2,1,4,17)            98.6852         calculate D2E/DX2 analytically  !
 ! D12   D(15,1,4,5)           139.7138         calculate D2E/DX2 analytically  !
 ! D13   D(15,1,4,17)          -21.5282         calculate D2E/DX2 analytically  !
 ! D14   D(16,1,4,5)            20.8366         calculate D2E/DX2 analytically  !
 ! D15   D(16,1,4,17)         -140.4054         calculate D2E/DX2 analytically  !
 ! D16   D(1,2,3,7)            100.0731         calculate D2E/DX2 analytically  !
 ! D17   D(1,2,3,12)           -98.6848         calculate D2E/DX2 analytically  !
 ! D18   D(13,2,3,7)          -139.7136         calculate D2E/DX2 analytically  !
 ! D19   D(13,2,3,12)           21.5285         calculate D2E/DX2 analytically  !
 ! D20   D(14,2,3,7)           -20.8364         calculate D2E/DX2 analytically  !
 ! D21   D(14,2,3,12)          140.4056         calculate D2E/DX2 analytically  !
 ! D22   D(2,3,7,8)            -18.8923         calculate D2E/DX2 analytically  !
 ! D23   D(2,3,7,11)           176.0358         calculate D2E/DX2 analytically  !
 ! D24   D(12,3,7,8)           179.9722         calculate D2E/DX2 analytically  !
 ! D25   D(12,3,7,11)           14.9003         calculate D2E/DX2 analytically  !
 ! D26   D(1,4,5,6)             18.8924         calculate D2E/DX2 analytically  !
 ! D27   D(1,4,5,18)          -176.0357         calculate D2E/DX2 analytically  !
 ! D28   D(17,4,5,6)          -179.9722         calculate D2E/DX2 analytically  !
 ! D29   D(17,4,5,18)          -14.9003         calculate D2E/DX2 analytically  !
 ! D30   D(4,5,6,19)           -25.7027         calculate D2E/DX2 analytically  !
 ! D31   D(4,5,6,20)           174.7703         calculate D2E/DX2 analytically  !
 ! D32   D(18,5,6,19)          169.354          calculate D2E/DX2 analytically  !
 ! D33   D(18,5,6,20)            9.827          calculate D2E/DX2 analytically  !
 ! D34   D(3,7,8,9)             25.7028         calculate D2E/DX2 analytically  !
 ! D35   D(3,7,8,10)          -174.7702         calculate D2E/DX2 analytically  !
 ! D36   D(11,7,8,9)          -169.3539         calculate D2E/DX2 analytically  !
 ! D37   D(11,7,8,10)           -9.8269         calculate D2E/DX2 analytically  !
 --------------------------------------------------------------------------------
 Trust Radius=3.00D-01 FncErr=1.00D-07 GrdErr=1.00D-07 EigMax=2.50D+02 EigMin=1.00D-04
 Number of steps in this run=      2 maximum allowed number of steps=      2.
 Search for a saddle point of order  1.
 GradGradGradGradGradGradGradGradGradGradGradGradGradGradGradGradGradGrad

                          Input orientation:                          
 ---------------------------------------------------------------------
 Center     Atomic      Atomic             Coordinates (Angstroms)
 Number     Number       Type             X           Y           Z
 ---------------------------------------------------------------------
      1          6           0       -1.525842   -0.769594   -0.556985
      2          6           0       -1.525834    0.769603   -0.556987
      3          6           0       -0.654722    1.092996    0.650832
      4          6           0       -0.654729   -1.092992    0.650833
      5          6           0        0.686313   -1.455203    0.566786
      6          6           0        1.495902   -1.220776   -0.521834
      7          6           0        0.686322    1.455198    0.566787
      8          6           0        1.495911    1.220767   -0.521832
      9          1           0        1.084305    1.117496   -1.514941
     10          1           0        2.550174    1.457999   -0.475884
     11          1           0        1.172561    1.723792    1.500563
     12          1           0       -1.175151    1.338612    1.569265
     13          1           0       -2.526189    1.189429   -0.436131
     14          1           0       -1.115630    1.192976   -1.475672
     15          1           0       -2.526200   -1.189410   -0.436125
     16          1           0       -1.115644   -1.192973   -1.475670
     17          1           0       -1.175159   -1.338605    1.569267
     18          1           0        1.172551   -1.723801    1.500561
     19          1           0        1.084295   -1.117500   -1.514942
     20          1           0        2.550163   -1.458016   -0.475888
 ---------------------------------------------------------------------
                    Distance matrix (angstroms):
                    1          2          3          4          5
     1  C    0.000000
     2  C    1.539197   0.000000
     3  C    2.384725   1.523892   0.000000
     4  C    1.523893   2.384725   2.185988   0.000000
     5  C    2.574209   3.332600   2.880756   1.391637   0.000000
     6  C    3.055444   3.618526   3.369550   2.452894   1.376766
     7  C    3.332601   2.574207   1.391637   2.880756   2.910401
     8  C    3.618531   3.055442   2.452894   3.369551   3.000226
     9  H    3.360306   2.802058   2.777659   3.549799   3.333281
    10  H    4.645714   4.134526   3.416734   4.248347   3.612186
    11  H    4.210921   3.524957   2.111613   3.463423   3.348789
    12  H    3.014707   2.228833   1.083832   2.650859   3.503629
    13  H    2.202969   1.091591   2.166374   3.145361   4.280197
    14  H    2.205434   1.091556   2.178176   3.155963   3.798879
    15  H    1.091590   2.202969   3.145359   2.166374   3.375902
    16  H    1.091556   2.205434   3.155965   2.178177   2.736319
    17  H    2.228834   3.014709   2.650860   1.083833   2.117461
    18  H    3.524958   4.210920   3.463425   2.111613   1.086512
    19  H    2.802059   3.360299   3.549796   2.777658   2.146165
    20  H    4.134528   4.645709   4.248347   3.416735   2.135676
                    6          7          8          9         10
     6  C    0.000000
     7  C    3.000225   0.000000
     8  C    2.441543   1.376766   0.000000
     9  H    2.573556   2.146165   1.079977   0.000000
    10  H    2.879138   2.135677   1.081601   1.828757   0.000000
    11  H    3.586798   1.086512   2.108950   3.077117   2.423800
    12  H    4.249434   2.117460   3.394281   3.829668   4.251463
    13  H    4.689739   3.375901   4.023135   3.768909   5.083618
    14  H    3.681862   2.736317   2.780419   2.201580   3.808928
    15  H    4.023137   4.280196   4.689742   4.418303   5.725376
    16  H    2.780422   3.798884   3.681870   3.190546   4.633082
    17  H    3.394283   3.503629   4.249435   4.544221   5.087410
    18  H    2.108950   3.348789   3.586797   4.144154   3.990994
    19  H    1.079977   3.333280   2.573555   2.234996   3.140324
    20  H    1.081601   3.612186   2.879138   3.140324   2.916015
                   11         12         13         14         15
    11  H    0.000000
    12  H    2.380091   0.000000
    13  H    4.209166   2.422637   0.000000
    14  H    3.791511   3.048999   1.752237   0.000000
    15  H    5.091006   3.498259   2.378839   2.957385   0.000000
    16  H    4.754089   3.960315   2.957384   2.385949   1.752237
    17  H    3.859376   2.677217   3.498265   3.960316   2.422637
    18  H    3.447593   3.859378   5.091008   4.754085   4.209167
    19  H    4.144153   4.544218   4.418297   3.190535   3.768911
    20  H    3.990996   5.087410   5.725373   4.633073   5.083620
                   16         17         18         19         20
    16  H    0.000000
    17  H    3.048999   0.000000
    18  H    3.791512   2.380092   0.000000
    19  H    2.201584   3.829669   3.077117   0.000000
    20  H    3.808931   4.251464   2.423800   1.828757   0.000000
 Stoichiometry    C8H12
 Framework group  C1[X(C8H12)]
 Deg. of freedom    54
 Full point group                 C1      NOp   1
 Largest Abelian subgroup         C1      NOp   1
 Largest concise Abelian subgroup C1      NOp   1
                         Standard orientation:                         
 ---------------------------------------------------------------------
 Center     Atomic      Atomic             Coordinates (Angstroms)
 Number     Number       Type             X           Y           Z
 ---------------------------------------------------------------------
      1          6           0        1.525842    0.769594   -0.556985
      2          6           0        1.525834   -0.769603   -0.556987
      3          6           0        0.654722   -1.092996    0.650832
      4          6           0        0.654729    1.092992    0.650833
      5          6           0       -0.686313    1.455203    0.566786
      6          6           0       -1.495902    1.220775   -0.521834
      7          6           0       -0.686321   -1.455198    0.566787
      8          6           0       -1.495911   -1.220768   -0.521832
      9          1           0       -1.084305   -1.117496   -1.514941
     10          1           0       -2.550173   -1.458000   -0.475884
     11          1           0       -1.172560   -1.723793    1.500563
     12          1           0        1.175151   -1.338612    1.569265
     13          1           0        2.526189   -1.189428   -0.436131
     14          1           0        1.115630   -1.192976   -1.475672
     15          1           0        2.526200    1.189411   -0.436125
     16          1           0        1.115644    1.192973   -1.475670
     17          1           0        1.175159    1.338605    1.569267
     18          1           0       -1.172552    1.723800    1.500561
     19          1           0       -1.084295    1.117500   -1.514942
     20          1           0       -2.550163    1.458015   -0.475888
 ---------------------------------------------------------------------
 Rotational constants (GHZ):           2.4921688           2.3101022           1.5833666
 Standard basis: def2TZVP (5D, 7F)
 There are   360 symmetry adapted cartesian basis functions of A   symmetry.
 There are   320 symmetry adapted basis functions of A   symmetry.
   320 basis functions,   504 primitive gaussians,   360 cartesian basis functions
    30 alpha electrons       30 beta electrons
       nuclear repulsion energy       368.2317326157 Hartrees.
 NAtoms=   20 NActive=   20 NUniq=   20 SFac= 1.00D+00 NAtFMM=   60 NAOKFM=F Big=F
 Integral buffers will be    131072 words long.
 Raffenetti 2 integral format.
 Two-electron integral symmetry is turned on.
 One-electron integrals computed using PRISM.
   1 Symmetry operations used in ECPInt.
 ECPInt:  NShTT=    9316 NPrTT=   27240 LenC2=    9239 LenP2D=   22136.
 LDataN:  DoStor=T MaxTD1= 6 Len=  172
 NBasis=   320 RedAO= T EigKep=  2.55D-05  NBF=   320
 NBsUse=   320 1.00D-06 EigRej= -1.00D+00 NBFU=   320
 Initial guess from the checkpoint file:  "checkpoint.chk"
 B after Tr=    -0.000000    0.000000    0.000000
         Rot=    1.000000    0.000000    0.000000    0.000000 Ang=   0.00 deg.
 Requested convergence on RMS density matrix=1.00D-08 within 128 cycles.
 Requested convergence on MAX density matrix=1.00D-06.
 Requested convergence on             energy=1.00D-06.
 No special actions if energy rises.
 SCF Done:  E(RB3LYP) =  -312.079787613     A.U. after    1 cycles
            NFock=  1  Conv=0.17D-08     -V/T= 2.0056
 DoSCS=F DFT=T ScalE2(SS,OS)=  1.000000  1.000000
 Range of M.O.s used for correlation:     1   320
 NBasis=   320 NAE=    30 NBE=    30 NFC=     0 NFV=     0
 NROrb=    320 NOA=    30 NOB=    30 NVA=   290 NVB=   290

 **** Warning!!: The largest alpha MO coefficient is  0.40333707D+02

   1 Symmetry operations used in ECPInt.
 ECPInt:  NShTT=    9316 NPrTT=   27240 LenC2=    9239 LenP2D=   22136.
 LDataN:  DoStor=T MaxTD1= 7 Len=  274
 Symmetrizing basis deriv contribution to polar:
 IMax=3 JMax=2 DiffMx= 0.00D+00
 G2DrvN: will do    21 centers at a time, making    1 passes.
 Calling FoFCou, ICntrl=  3107 FMM=F I1Cent=   0 AccDes= 0.00D+00.
 End of G2Drv F.D. properties file   721 does not exist.
 End of G2Drv F.D. properties file   722 does not exist.
 End of G2Drv F.D. properties file   788 does not exist.
          IDoAtm=11111111111111111111
          Differentiating once with respect to electric field.
                with respect to dipole field.
          Differentiating once with respect to nuclear coordinates.
 Keep R1 ints in memory in canonical form, NReq=1342483740.
          There are    63 degrees of freedom in the 1st order CPHF.  IDoFFX=6 NUNeed=     3.
     60 vectors produced by pass  0 Test12= 1.38D-14 1.59D-09 XBig12= 1.94D+02 1.16D+01.
 AX will form    60 AO Fock derivatives at one time.
     60 vectors produced by pass  1 Test12= 1.38D-14 1.59D-09 XBig12= 3.53D+01 1.42D+00.
     60 vectors produced by pass  2 Test12= 1.38D-14 1.59D-09 XBig12= 3.03D-01 1.02D-01.
     60 vectors produced by pass  3 Test12= 1.38D-14 1.59D-09 XBig12= 7.89D-04 3.38D-03.
     60 vectors produced by pass  4 Test12= 1.38D-14 1.59D-09 XBig12= 1.55D-06 2.03D-04.
     40 vectors produced by pass  5 Test12= 1.38D-14 1.59D-09 XBig12= 2.05D-09 6.62D-06.
     10 vectors produced by pass  6 Test12= 1.38D-14 1.59D-09 XBig12= 2.60D-12 2.04D-07.
      3 vectors produced by pass  7 Test12= 1.38D-14 1.59D-09 XBig12= 2.63D-15 8.79D-09.
 InvSVY:  IOpt=1 It=  1 EMax= 1.24D-14
 Solved reduced A of dimension   353 with    63 vectors.
 Isotropic polarizability for W=    0.000000      102.33 Bohr**3.
 End of Minotr F.D. properties file   721 does not exist.
 End of Minotr F.D. properties file   722 does not exist.
 End of Minotr F.D. properties file   788 does not exist.
   1 Symmetry operations used in ECPInt.
 ECPInt:  NShTT=    9316 NPrTT=   27240 LenC2=    9239 LenP2D=   22136.
 LDataN:  DoStor=T MaxTD1= 8 Len=  415
 Calling FoFJK, ICntrl=    100127 FMM=F ISym2X=0 I1Cent= 0 IOpClX= 0 NMat=1 NMatS=1 NMatT=0.
 Full mass-weighted force constant matrix:
 Low frequencies --- -429.5095  -14.4545   -0.0007   -0.0005   -0.0005    5.2462
 Low frequencies ---    6.2976   60.0479  261.3974
 ******    1 imaginary frequencies (negative Signs) ****** 
 Diagonal vibrational polarizability:
        1.2339767       4.1951585       0.9607603
 Harmonic frequencies (cm**-1), IR intensities (KM/Mole), Raman scattering
 activities (A**4/AMU), depolarization ratios for plane and unpolarized
 incident light, reduced masses (AMU), force constants (mDyne/A),
 and normal coordinates:
                      1                      2                      3
                      A                      A                      A
 Frequencies --   -429.5095                59.8181               261.3969
 Red. masses --      8.1989                 2.0986                 4.7536
 Frc consts  --      0.8912                 0.0044                 0.1914
 IR Inten    --      2.3730                 0.0093                 0.0361
  Atom  AN      X      Y      Z        X      Y      Z        X      Y      Z
     1   6     0.04  -0.01  -0.05     0.10   0.06   0.12    -0.11  -0.00   0.01
     2   6     0.04   0.01  -0.05    -0.10   0.06  -0.12    -0.11   0.00   0.01
     3   6    -0.01   0.41   0.05     0.01   0.01  -0.05     0.02  -0.23   0.02
     4   6    -0.01  -0.41   0.05    -0.01   0.01   0.05     0.02   0.23   0.02
     5   6    -0.05   0.00  -0.02    -0.01  -0.02  -0.05     0.03   0.19   0.02
     6   6     0.02   0.38   0.02     0.07  -0.05  -0.10     0.07   0.25  -0.03
     7   6    -0.05  -0.00  -0.02     0.01  -0.02   0.05     0.03  -0.19   0.02
     8   6     0.02  -0.38   0.02    -0.07  -0.05   0.10     0.07  -0.25  -0.03
     9   1    -0.01   0.12   0.06    -0.15  -0.10   0.06     0.12  -0.09   0.01
    10   1     0.01  -0.33   0.00    -0.07  -0.03   0.19     0.08  -0.30  -0.11
    11   1    -0.01  -0.01   0.00     0.08  -0.00   0.09     0.02  -0.33  -0.02
    12   1     0.00   0.20  -0.01     0.09   0.01  -0.10     0.06  -0.21   0.00
    13   1     0.01  -0.06  -0.01    -0.15  -0.12  -0.34    -0.08   0.04  -0.11
    14   1    -0.01  -0.06   0.00    -0.31   0.27  -0.12    -0.15   0.03   0.01
    15   1     0.01   0.06  -0.01     0.15  -0.12   0.34    -0.08  -0.04  -0.11
    16   1    -0.01   0.06   0.00     0.31   0.27   0.12    -0.15  -0.03   0.01
    17   1     0.00  -0.20  -0.01    -0.09   0.01   0.10     0.06   0.21   0.00
    18   1    -0.01   0.01   0.00    -0.08  -0.00  -0.09     0.02   0.33  -0.02
    19   1    -0.01  -0.12   0.06     0.15  -0.10  -0.06     0.12   0.09   0.01
    20   1     0.01   0.33   0.00     0.07  -0.03  -0.19     0.08   0.30  -0.11
                      4                      5                      6
                      A                      A                      A
 Frequencies --    262.6438               286.6612               303.5711
 Red. masses --      2.5061                 2.9627                 3.2795
 Frc consts  --      0.1019                 0.1434                 0.1781
 IR Inten    --      0.7842                 0.2046                 0.0632
  Atom  AN      X      Y      Z        X      Y      Z        X      Y      Z
     1   6    -0.12   0.01  -0.00     0.17   0.00   0.06     0.03  -0.10   0.05
     2   6     0.12   0.01   0.00     0.17  -0.00   0.06    -0.03  -0.10  -0.05
     3   6     0.08  -0.10  -0.06     0.00  -0.06  -0.08     0.12  -0.08   0.04
     4   6    -0.08  -0.10   0.06     0.00   0.06  -0.08    -0.12  -0.08  -0.04
     5   6    -0.05  -0.01  -0.01    -0.00   0.06  -0.06    -0.10   0.01  -0.06
     6   6     0.09   0.08  -0.13    -0.17   0.07   0.05    -0.18   0.15  -0.03
     7   6     0.05  -0.01   0.01    -0.00  -0.06  -0.06     0.10   0.01   0.06
     8   6    -0.09   0.08   0.13    -0.17  -0.07   0.05     0.18   0.15   0.03
     9   1    -0.23   0.03   0.06    -0.34  -0.01  -0.01     0.27   0.22   0.08
    10   1    -0.10   0.17   0.30    -0.16  -0.11   0.23     0.17   0.17  -0.08
    11   1     0.14  -0.02   0.06     0.09  -0.11  -0.03     0.07  -0.01   0.04
    12   1     0.07  -0.17  -0.08    -0.07  -0.06  -0.04     0.17  -0.06   0.01
    13   1     0.18   0.19   0.13     0.16   0.00   0.22    -0.03  -0.18  -0.28
    14   1     0.30  -0.08  -0.04     0.32   0.02  -0.02    -0.24  -0.00  -0.00
    15   1    -0.18   0.19  -0.13     0.16  -0.00   0.22     0.03  -0.18   0.28
    16   1    -0.30  -0.08   0.04     0.32  -0.02  -0.02     0.24  -0.00   0.00
    17   1    -0.07  -0.17   0.08    -0.07   0.06  -0.04    -0.17  -0.06  -0.01
    18   1    -0.14  -0.02  -0.06     0.09   0.11  -0.03    -0.07  -0.01  -0.04
    19   1     0.23   0.03  -0.06    -0.34   0.01  -0.01    -0.27   0.22  -0.08
    20   1     0.10   0.17  -0.30    -0.16   0.11   0.23    -0.17   0.17   0.08
                      7                      8                      9
                      A                      A                      A
 Frequencies --    371.1951               423.2283               530.2904
 Red. masses --      2.3363                 2.2893                 2.2836
 Frc consts  --      0.1897                 0.2416                 0.3784
 IR Inten    --      1.2713                 1.4650                 2.6212
  Atom  AN      X      Y      Z        X      Y      Z        X      Y      Z
     1   6    -0.05  -0.06   0.07    -0.02  -0.01   0.01     0.01  -0.08  -0.03
     2   6     0.05  -0.06  -0.07    -0.02   0.01   0.01    -0.01  -0.08   0.03
     3   6     0.06  -0.04  -0.08    -0.02   0.09   0.03     0.07   0.08   0.06
     4   6    -0.06  -0.04   0.08    -0.02  -0.09   0.03    -0.07   0.08  -0.06
     5   6    -0.01   0.17   0.02     0.04   0.18  -0.06    -0.11   0.01   0.13
     6   6    -0.02  -0.08   0.07    -0.00  -0.11   0.03     0.06   0.01   0.03
     7   6     0.01   0.17  -0.02     0.04  -0.18  -0.06     0.11   0.01  -0.13
     8   6     0.02  -0.08  -0.07    -0.00   0.11   0.03    -0.06   0.01  -0.03
     9   1     0.00  -0.35  -0.10    -0.02   0.36   0.05    -0.38   0.05  -0.16
    10   1     0.00   0.01   0.03     0.02  -0.02  -0.03    -0.04  -0.05   0.28
    11   1    -0.03   0.52   0.07     0.08  -0.52  -0.14     0.09  -0.04  -0.16
    12   1     0.03   0.01  -0.05     0.00   0.00  -0.00    -0.02   0.15   0.13
    13   1     0.07  -0.02  -0.08    -0.03  -0.03  -0.01    -0.01  -0.15  -0.13
    14   1     0.07  -0.03  -0.09    -0.06  -0.00   0.03    -0.22  -0.10   0.14
    15   1    -0.07  -0.02   0.08    -0.03   0.03  -0.01     0.01  -0.15   0.13
    16   1    -0.07  -0.03   0.09    -0.06   0.00   0.03     0.22  -0.10  -0.14
    17   1    -0.03   0.01   0.05     0.00  -0.00  -0.00     0.02   0.15  -0.13
    18   1     0.03   0.52  -0.07     0.08   0.52  -0.14    -0.09  -0.04   0.16
    19   1    -0.00  -0.35   0.10    -0.02  -0.36   0.05     0.38   0.05   0.16
    20   1    -0.00   0.01  -0.03     0.02   0.02  -0.03     0.04  -0.05  -0.28
                     10                     11                     12
                      A                      A                      A
 Frequencies --    573.6571               659.7829               688.1823
 Red. masses --      2.0415                 2.6575                 1.3282
 Frc consts  --      0.3958                 0.6816                 0.3706
 IR Inten    --      0.4152                 3.6824                 0.1479
  Atom  AN      X      Y      Z        X      Y      Z        X      Y      Z
     1   6     0.05   0.01  -0.06    -0.03  -0.13   0.09     0.00  -0.00  -0.01
     2   6     0.05  -0.01  -0.06     0.03  -0.13  -0.09     0.00   0.00  -0.01
     3   6    -0.08  -0.01  -0.09    -0.04   0.15  -0.15     0.03  -0.02   0.02
     4   6    -0.08   0.01  -0.09     0.04   0.15   0.15     0.03   0.02   0.02
     5   6    -0.09   0.05   0.11    -0.02  -0.04  -0.01    -0.02  -0.11   0.00
     6   6     0.05  -0.01   0.04    -0.01   0.01  -0.04    -0.02  -0.01   0.01
     7   6    -0.09  -0.05   0.11     0.02  -0.04   0.01    -0.02   0.11   0.00
[...]
 77888,-0.01500732,0.00654299,-0.18396995,0.02184467,0.13312530,0.65934
 153,0.00194442,-0.00157582,0.00351290,0.00152647,-0.00176436,0.0038454
 5,0.02171441,0.03826855,-0.00149456,0.02169122,-0.03470531,-0.00687702
 ,-0.04581652,-0.01038483,0.02513920,0.01500772,0.04828795,-0.01954369,
 -0.02120252,-0.05649625,-0.02766880,0.08171055,0.09220941,0.00249289,-
 0.00235548,0.00436379,0.00260678,0.00147082,0.00245930,0.03388856,0.03
 145542,-0.00331435,0.00870000,-0.02504929,-0.00614866,-0.01769151,0.00
 067975,0.00995118,0.00654315,0.01954371,-0.01680768,0.10481034,-0.0526
 1311,-0.29131450,-0.04102679,0.06752568,0.67224958,0.00024150,-0.00006
 903,-0.00015814,-0.00106915,-0.00035146,0.00140300,-0.00021561,0.00013
 022,-0.00049836,-0.00000373,0.00002411,-0.00000988,0.00016489,-0.00019
 076,0.00020841,-0.00061974,-0.00006804,-0.00056620,0.01288322,0.001601
 93,0.01663538,-0.10035627,-0.01554971,-0.10310790,0.09843121,-0.000758
 18,0.00025694,-0.00031645,-0.00063611,-0.00066289,0.00002360,-0.003058
 18,-0.00859800,0.00214991,-0.00358628,0.00428876,0.00123030,0.00546633
 ,0.00043175,-0.00340474,-0.00013296,-0.01145110,0.00683362,0.00551714,
 0.00151309,-0.01214248,-0.01758845,-0.02393840,-0.02028769,0.01568502,
 0.03156658,0.00026273,0.00025057,0.00012600,-0.00044783,0.00096038,0.0
 0032689,-0.00149372,0.00022388,0.00031517,0.00040941,-0.00069586,-0.00
 062898,-0.00041992,-0.00007247,0.00077356,-0.00054850,0.00027555,-0.00
 169069,-0.01281887,-0.00285365,-0.01955353,-0.09918970,-0.03151652,-0.
 29487755,0.10890159,0.03538183,0.31206652,-0.00002618,0.00009089,0.000
 03712,0.00028586,0.00011736,0.00025661,0.00049674,0.00131755,0.0029094
 1,0.00047773,-0.00048514,-0.00034002,-0.00049777,0.00002681,0.00056031
 ,0.00104718,0.00108222,-0.00049636,-0.01463345,-0.00543374,-0.00363134
 ,-0.32523215,-0.06339969,-0.01396143,-0.00744957,-0.00198204,0.0012545
 8,0.34470741,0.00019660,-0.00006728,0.00011110,0.00005117,0.00028491,-
 0.00060599,-0.00208242,0.00374932,-0.00212297,-0.00062607,0.00122471,0
 .00083780,0.00090305,-0.00019015,-0.00104712,-0.00421528,-0.00262920,0
 .00001457,0.01060392,0.00472092,-0.00179235,-0.07180440,-0.04279473,-0
 .00549185,-0.00188451,0.00090371,0.00022300,0.06859198,0.03936016,-0.0
 0002068,0.00006916,0.00000253,-0.00030085,0.00025839,-0.00049786,0.002
 65057,-0.00157016,-0.00387161,0.00032491,-0.00108618,-0.00049857,-0.00
 066604,0.00016586,0.00075919,0.00103048,0.00105191,-0.00104386,0.02520
 051,0.00752677,0.00446479,-0.01656666,-0.00926777,-0.05646401,-0.02558
 611,-0.00634162,0.00162715,0.01293522,0.00834251,0.05298437,-0.0002521
 3,-0.00017089,-0.00032370,-0.00305172,-0.00218743,0.00329390,-0.014528
 31,-0.00663567,-0.02963622,0.00024774,-0.00080637,-0.00039487,-0.00052
 232,0.00002196,0.00024367,0.00024987,0.00051009,-0.00044561,-0.1099036
 9,-0.03286258,-0.10167403,0.01042555,0.00348072,0.01844058,-0.00149881
 ,0.00023613,0.00324968,0.00099555,0.00057220,-0.00034883,0.11719933,0.
 00077971,0.00118755,0.00095313,-0.00238820,0.00637761,-0.00051884,-0.0
 0626491,-0.00078913,-0.00791457,0.00018418,0.00107794,0.00085782,0.000
 70812,0.00047380,0.00031178,0.00033293,0.00024165,0.00044630,-0.028753
 51,-0.05635617,-0.05754321,-0.00299425,0.00286203,-0.00564407,0.000170
 32,0.00695987,-0.00103145,0.00099263,-0.00456260,0.00125503,0.03743053
 ,0.04699063,-0.00017021,-0.00025755,-0.00024897,0.00098728,-0.00061584
 ,0.00152993,0.00218938,0.00049151,0.00276645,-0.00031612,0.00006557,0.
 00005727,-0.00011292,-0.00001956,-0.00031449,0.00004860,-0.00013575,-0
 .00005173,-0.10191981,-0.06161107,-0.25211254,-0.01225172,-0.00571008,
 -0.02224634,0.00332753,-0.00291791,-0.00203440,0.00002046,0.00148460,0
 .00103550,0.10798681,0.06854329,0.27005349,-0.00054141,0.00028187,-0.0
 0073553,0.00863631,-0.00387579,-0.01673667,-0.11860478,0.02480935,0.11
 291095,-0.00122076,0.00096582,0.00083883,0.00092207,0.00004423,-0.0001
 9621,-0.00040872,-0.00074020,0.00026952,-0.01195420,0.00883226,0.02690
 837,-0.00516821,-0.00217456,-0.00082050,0.00003536,0.00010849,0.000170
 60,-0.00075813,-0.00014062,0.00137156,0.00077378,0.00067027,-0.0001768
 7,0.12753862,-0.00090546,0.00003612,0.00047266,0.00199009,0.00102169,-
 0.00286537,0.03418081,-0.04288856,-0.06497776,0.00644633,-0.00718290,-
 0.00531948,-0.00428530,-0.00019932,0.00128855,0.00215776,0.00231887,-0
 .00181817,-0.01188962,0.00515571,0.01244495,-0.00097071,0.00152581,-0.
 00417315,0.00053954,0.00019643,-0.00006670,-0.00044808,0.00016792,0.00
 004620,0.00120681,-0.00375238,0.00086686,-0.02714156,0.04308837,-0.000
 59236,0.00031299,-0.00111338,0.01094654,-0.00349507,-0.01652514,0.1146
 1103,-0.05899413,-0.25288976,-0.00232561,0.00260340,0.00125056,0.00162
 566,0.00012550,-0.00019331,-0.00090961,-0.00098318,0.00064385,0.000641
 37,-0.00118499,-0.00144756,-0.00000539,0.00022589,0.00293985,-0.000429
 15,-0.00025584,0.00020026,0.00002879,-0.00016561,-0.00005391,-0.000085
 82,0.00162646,0.00102702,-0.12116090,0.06258310,0.26657273,0.00310251,
 -0.00223210,0.00021346,-0.26648313,0.08998801,0.03037235,-0.01759443,0
 .00441805,0.00304739,-0.00036494,0.00039212,-0.00068854,0.00081572,-0.
 00003641,-0.00019700,-0.00013124,-0.00026055,0.00033569,0.00035410,0.0
 0055955,-0.00338743,0.00000579,0.00018410,0.00033413,0.00010053,-0.000
 17182,-0.00024009,-0.00007480,0.00011780,-0.00009352,-0.00067422,-0.00
 052774,0.00002798,0.00160048,-0.00059471,0.00001807,0.28837347,0.02759
 680,-0.01253351,-0.00563617,0.08933997,-0.08234262,-0.01150500,-0.0096
 2928,0.00326504,0.00230386,0.00028265,-0.00315641,-0.00047909,-0.00002
 523,0.00014909,0.00119516,-0.00011736,0.00013357,-0.00020551,-0.001022
 07,-0.00091365,-0.00097729,-0.00000296,-0.00017815,-0.00026800,0.00006
 313,0.00007227,-0.00023510,-0.00005480,0.00005914,-0.00012495,-0.00036
 476,-0.00035720,-0.00009331,0.00031762,0.00125070,0.00038938,-0.096058
 58,0.09082041,0.00094092,0.00013693,-0.00141169,0.03180360,-0.01156238
 ,-0.05263645,-0.02814650,0.00707495,0.00344676,-0.00036388,0.00212231,
 -0.00095380,0.00092183,-0.00024117,-0.00047753,-0.00035755,-0.00039766
 ,0.00050079,0.00044724,0.00046455,-0.00445050,0.00027715,0.00066340,-0
 .00017688,-0.00000026,-0.00000187,0.00051414,0.00008202,-0.00007800,0.
 00036172,-0.00068592,-0.00102929,0.00011196,0.00046274,0.00009074,0.00
 144442,-0.03070158,0.01394211,0.05467082,-0.00144073,0.00093953,-0.000
 51088,-0.08840406,-0.03806832,0.08482461,0.00938284,0.00592815,-0.0155
 5220,-0.00088361,0.00166182,0.00014615,0.00043340,-0.00011895,-0.00032
 160,-0.00037639,-0.00041420,0.00038420,0.00070493,0.00022895,-0.000040
 56,-0.00117897,0.00099280,-0.00068949,-0.00156644,0.00050809,0.0002567
 9,0.00022645,-0.00047111,0.00008031,0.00044112,-0.00032566,0.00029287,
 -0.00136101,-0.00040758,-0.00227542,-0.01122416,-0.01141613,0.02580742
 ,0.09331065,-0.01353970,-0.01245808,0.02484666,-0.03755436,-0.08284597
 ,0.08229685,0.00562538,0.00321444,-0.00815432,0.00069463,-0.00338186,-
 0.00045767,-0.00089459,-0.00021553,0.00123520,0.00034597,0.00054030,-0
 .00021213,-0.00060859,0.00098401,0.00041255,0.00025754,-0.00047001,0.0
 0026594,0.00007738,0.00039622,-0.00030802,-0.00009194,0.00004861,-0.00
 026049,0.00021286,-0.00012839,0.00001283,-0.00118896,-0.00084191,-0.00
 168451,0.00417679,0.00532279,-0.01086151,0.04168026,0.09126383,-0.0009
 5019,-0.00224332,0.00315964,0.08413522,0.08248974,-0.22897368,0.009477
 60,0.00550177,-0.02333856,-0.00161255,0.00071801,-0.00034399,0.0008270
 1,-0.00002148,-0.00029067,-0.00055701,-0.00021715,0.00043750,0.0028556
 8,-0.00048769,0.00081431,-0.00009710,0.00075964,0.00059042,-0.00036735
 ,0.00000823,0.00071464,0.00014244,0.00011036,0.00056582,0.00017968,-0.
 00018592,0.00014436,-0.00301124,0.00114275,-0.00259065,0.00202065,0.00
 074333,-0.00249923,-0.09204133,-0.08812492,0.24990465,-0.26648581,-0.0
 8998671,0.03037348,0.00310230,0.00223197,0.00021348,-0.00036494,-0.000
 39215,-0.00068853,-0.01759442,-0.00441786,0.00304746,0.00035409,-0.000
 55956,-0.00338743,0.00000580,-0.00018410,0.00033412,0.00081572,0.00003
 641,-0.00019701,-0.00013123,0.00026055,0.00033569,-0.00001451,-0.00005
 003,-0.00003280,-0.00001125,-0.00000316,-0.00000084,0.00005038,0.00003
 660,-0.00003186,0.00002252,-0.00023294,-0.00001424,0.00164467,-0.00015
 256,-0.00028419,0.00050250,0.00035661,-0.00069763,0.28837619,-0.089338
 67,-0.08234096,0.01150509,-0.02759692,-0.01253322,0.00563631,-0.000282
 67,-0.00315638,0.00047911,0.00962942,0.00326496,-0.00230390,0.00102206
 ,-0.00091364,0.00097732,0.00000296,-0.00017814,0.00026800,0.00002522,0
 .00014909,-0.00119515,0.00011736,0.00013357,0.00020551,0.00012157,-0.0
 0010792,0.00002863,-0.00003945,0.00002309,-0.00003221,-0.00021425,0.00
 026984,-0.00008204,-0.00028573,-0.00022265,-0.00040780,0.00015257,0.00
 250267,0.00021213,-0.00082575,-0.00405654,-0.00066928,0.09605709,0.090
 81858,0.03180473,0.01156244,-0.05263655,0.00094098,-0.00013689,-0.0014
 1172,-0.00036388,-0.00212228,-0.00095379,-0.02814654,-0.00707467,0.003
 44684,0.00044722,-0.00046455,-0.00445050,0.00027714,-0.00066339,-0.000
 17688,0.00092182,0.00024117,-0.00047752,-0.00035754,0.00039766,0.00050
 079,-0.00003425,-0.00018845,0.00011000,0.00003535,-0.00007177,0.000071
 80,0.00005142,0.00009921,-0.00002329,-0.00000920,-0.00026443,-0.000011
 97,-0.00028419,-0.00021213,0.00119478,-0.00024635,0.00096069,0.0002141
 5,-0.03070282,-0.01394227,0.05467095,-0.08840298,0.03806836,0.08482337
 ,-0.00144060,-0.00093966,-0.00051111,-0.00088362,-0.00166186,0.0001461
 5,0.00938268,-0.00592825,-0.01555218,0.00070495,-0.00022894,-0.0000405
 8,-0.00117896,-0.00099280,-0.00068948,0.00043341,0.00011895,-0.0003216
 2,-0.00037639,0.00041421,0.00038421,0.00000996,-0.00008604,0.00013662,
 0.00004096,-0.00010845,0.00007444,0.00000702,0.00007535,-0.00002718,-0
 .00001135,0.00012690,0.00000803,0.00050250,0.00082570,-0.00024636,0.00
 138690,-0.00011585,-0.00030643,-0.01122400,0.01141637,0.02580753,0.093
 30936,0.03755440,-0.08284704,-0.08229801,0.01353949,-0.01245828,-0.024
 84667,-0.00069465,-0.00338188,0.00045768,-0.00562539,0.00321455,0.0081
 5440,0.00060860,0.00098402,-0.00041255,-0.00025754,-0.00047000,-0.0002
 6594,0.00089459,-0.00021554,-0.00123521,-0.00034596,0.00054030,0.00021
 214,-0.00011917,-0.00022920,0.00012005,0.00001809,-0.00000144,0.000109
 97,-0.00021805,0.00018742,-0.00000883,-0.00024745,0.00008399,-0.000374
 41,-0.00035664,-0.00405652,-0.00096067,0.00011585,0.00258732,0.0001203
 7,-0.00417660,0.00532275,0.01086125,-0.04168024,0.09126505,0.08413402,
 -0.08249092,-0.22897353,-0.00095019,0.00224336,0.00315970,-0.00161257,
 -0.00071800,-0.00034400,0.00947744,-0.00550189,-0.02333852,0.00285569,
 0.00048767,0.00081431,-0.00009712,-0.00075964,0.00059043,0.00082703,0.
 00002148,-0.00029067,-0.00055701,0.00021716,0.00043751,-0.00010055,-0.
 00037814,0.00000937,0.00001857,-0.00000853,0.00007203,0.00002721,0.000
 04048,-0.00002160,0.00005735,-0.00000936,0.00010078,-0.00069763,0.0006
 6928,0.00021414,-0.00030643,-0.00012037,0.00133072,0.00202066,-0.00074
 341,-0.00249933,-0.09203998,0.08812625,0.24990451,0.00863627,0.0038757
 5,-0.01673667,-0.00054141,-0.00028186,-0.00073555,-0.00122081,-0.00096
 585,0.00083886,-0.11860470,-0.02480869,0.11291066,-0.01195411,-0.00883
 216,0.02690825,-0.00516819,0.00217461,-0.00082047,0.00092209,-0.000044
 24,-0.00019621,-0.00040873,0.00074021,0.00026953,-0.00003444,-0.000090
 77,0.00000554,0.00002682,-0.00001133,0.00003163,-0.00002198,0.00000681
 ,-0.00003533,0.00052904,0.00033033,-0.00014463,0.00002252,0.00028573,-
 0.00000920,-0.00001134,0.00024745,0.00005734,0.00160048,-0.00031762,0.
 00046274,-0.00136100,0.00118896,-0.00301124,0.12753848,-0.00199011,0.0
 0102168,0.00286549,0.00090548,0.00003611,-0.00047264,-0.00644636,-0.00
 718281,0.00531947,-0.03418013,-0.04288831,0.06497681,0.01188967,0.0051
 5568,-0.01244513,0.00097077,0.00152579,0.00417314,0.00428528,-0.000199
 34,-0.00128854,-0.00215774,0.00231888,0.00181817,0.00002235,-0.0004046
 5,0.00007255,0.00007744,-0.00014930,0.00004594,0.00000282,-0.00018388,
 -0.00007314,-0.00033033,0.00097994,-0.00060395,0.00023294,-0.00022265,
 0.00026443,-0.00012690,0.00008399,0.00000936,0.00059470,0.00125069,-0.
 00009074,0.00040757,-0.00084193,-0.00114273,0.02714082,0.04308813,0.01
 094652,0.00349502,-0.01652512,-0.00059238,-0.00031299,-0.00111339,-0.0
 0232562,-0.00260337,0.00125055,0.11461068,0.05899315,-0.25288906,0.000
 64137,0.00118500,-0.00144760,-0.00000538,-0.00022590,0.00293985,0.0016
 2565,-0.00012551,-0.00019330,-0.00090960,0.00098318,0.00064385,-0.0000
 2952,-0.00024826,0.00008817,0.00002794,-0.00001100,0.00006155,0.000065
 22,-0.00002352,-0.00001785,-0.00014463,0.00060395,0.00051434,-0.000014
 23,0.00040781,-0.00001197,0.00000803,0.00037441,0.00010078,0.00001807,
 -0.00038937,0.00144442,-0.00227540,0.00168452,-0.00259064,-0.12116054,
 -0.06258211,0.26657206,-0.00305169,0.00218749,0.00329391,-0.00025213,0
 .00017090,-0.00032370,0.00024774,0.00080637,-0.00039487,-0.01452826,0.
 00663578,-0.02963612,-0.10990354,0.03286320,-0.10167406,0.01042556,-0.
 00348080,0.01844058,-0.00052233,-0.00002196,0.00024367,0.00024986,-0.0
 0051008,-0.00044562,-0.00005365,0.00022138,0.00001096,-0.00000861,0.00
 000211,-0.00000668,0.00012510,-0.00000937,0.00005256,-0.00002198,-0.00
 000283,0.00006522,0.00005038,0.00021425,0.00005142,0.00000702,0.000218
 05,0.00002720,-0.00067421,0.00036477,-0.00068592,0.00044113,-0.0002128
 7,0.00017968,0.00077377,-0.00120684,-0.00008583,0.11719911,0.00238825,
 0.00637756,0.00051880,-0.00077971,0.00118755,-0.00095312,-0.00018419,0
 .00107791,-0.00085781,0.00626498,-0.00078919,0.00791477,0.02875416,-0.
 05635663,0.05754417,0.00299420,0.00286199,0.00564400,-0.00070809,0.000
 47381,-0.00031180,-0.00033293,0.00024168,-0.00044629,0.00009940,0.0002
 0704,0.00018400,0.00002440,-0.00008164,0.00001474,0.00000936,-0.000624
 00,0.00004390,-0.00000681,-0.00018388,0.00002352,-0.00003659,0.0002698
 5,-0.00009921,-0.00007535,0.00018742,-0.00004048,0.00052774,-0.0003572
 0,0.00102929,0.00032566,-0.00012839,0.00018592,-0.00067030,-0.00375236
 ,-0.00162645,-0.03743125,0.04699121,0.00098729,0.00061584,0.00152992,-
 0.00017021,0.00025756,-0.00024897,-0.00031612,-0.00006558,0.00005728,0
 .00218941,-0.00049153,0.00276651,-0.10191980,0.06161206,-0.25211273,-0
 .01225173,0.00571019,-0.02224631,-0.00011292,0.00001956,-0.00031449,0.
 00004860,0.00013576,-0.00005173,0.00008317,-0.00008517,0.00015344,0.00
 002538,0.00006865,-0.00002002,0.00005256,-0.00004390,0.00021182,-0.000
 03533,0.00007314,-0.00001785,-0.00003186,0.00008204,-0.00002329,-0.000
 02718,0.00000883,-0.00002160,0.00002798,0.00009331,0.00011196,0.000292
 87,-0.00001284,0.00014436,-0.00017688,-0.00086686,0.00102702,0.1079867
 6,-0.06854433,0.27005360,-0.00106913,0.00035147,0.00140300,0.00024149,
 0.00006902,-0.00015814,-0.00000370,-0.00002407,-0.00000988,-0.00021558
 ,-0.00013029,-0.00049838,0.01288317,-0.00160204,0.01663543,-0.10035642
 ,0.01555055,-0.10310812,0.00016485,0.00019077,0.00020844,-0.00061974,0
 .00006795,-0.00056625,0.00092979,0.00037791,0.00038698,0.00008547,-0.0
 0007563,-0.00005839,-0.00005365,-0.00009940,0.00008317,-0.00003444,-0.
 00002235,-0.00002952,-0.00001451,-0.00012157,-0.00003425,0.00000996,0.
 00011916,-0.00010055,0.00010053,-0.00006313,-0.00000026,-0.00156641,-0
 .00007737,-0.00036735,0.00003536,-0.00053954,-0.00042914,-0.00149880,-
 0.00017026,0.00332755,0.09843135,0.00063612,-0.00066289,-0.00002361,0.
 00075820,0.00025695,0.00031644,0.00358630,0.00428873,-0.00123029,0.003
 05811,-0.00859800,-0.00214991,-0.00551716,0.00151311,0.01214238,0.0175
 8925,-0.02393874,0.02028898,-0.00546634,0.00043179,0.00340472,0.000132
 88,-0.01145110,-0.00683362,-0.00037791,-0.00083232,-0.00099628,-0.0000
 2037,-0.00056821,0.00005513,-0.00022138,0.00020705,0.00008517,0.000090
 77,-0.00040465,0.00024826,0.00005004,-0.00010792,0.00018845,0.00008604
 ,-0.00022921,0.00037814,0.00017182,0.00007227,0.00000187,-0.00050809,0
 .00039621,-0.00000823,-0.00010849,0.00019643,0.00025584,-0.00023608,0.
 00695988,0.00291790,-0.01568580,0.03156695,-0.00044782,-0.00096037,0.0
 0032689,0.00026273,-0.00025057,0.00012600,0.00040943,0.00069586,-0.000
 62898,-0.00149371,-0.00022388,0.00031517,-0.01281892,0.00285377,-0.019
 55351,-0.09918985,0.03151776,-0.29487720,-0.00041993,0.00007247,0.0007
 7357,-0.00054850,-0.00027556,-0.00169070,0.00038699,0.00099627,0.00160
 075,0.00014597,-0.00005562,0.00015910,0.00001095,-0.00018399,0.0001534
 4,0.00000554,-0.00007255,0.00008817,-0.00003280,-0.00002863,0.00011000
 ,0.00013662,-0.00012005,0.00000937,-0.00024009,0.00023511,0.00051414,0
 .00025679,0.00030801,0.00071462,0.00017060,0.00006670,0.00020026,0.003
 24968,0.00103144,-0.00203440,0.10890173,-0.03538316,0.31206612,0.00028
 585,-0.00011736,0.00025661,-0.00002618,-0.00009089,0.00003712,0.000477
 74,0.00048515,-0.00034003,0.00049676,-0.00131753,0.00290943,-0.0146334
 6,0.00543387,-0.00363128,-0.32523174,0.06340199,-0.01396091,-0.0004977
 8,-0.00002681,0.00056032,0.00104721,-0.00108225,-0.00049636,0.00008547
 ,0.00002036,0.00014597,0.00030174,0.00038414,-0.00005102,-0.00000861,-
 0.00002440,0.00002538,0.00002682,-0.00007745,0.00002794,-0.00001125,0.
 00003945,0.00003535,0.00004096,-0.00001809,0.00001857,-0.00007480,0.00
 005480,0.00008202,0.00022645,0.00009194,0.00014243,-0.00075813,0.00044
 808,0.00002879,0.00099554,-0.00099267,0.00002044,-0.00744957,0.0019821
 0,0.00125460,0.34470697,-0.00005117,0.00028491,0.00060599,-0.00019660,
 -0.00006728,-0.00011109,0.00062608,0.00122472,-0.00083780,0.00208245,0
 .00374930,0.00212296,-0.01060384,0.00472097,0.00179240,0.07180672,-0.0
 4279572,0.00549186,-0.00090306,-0.00019015,0.00104712,0.00421526,-0.00
 262922,-0.00001458,0.00007562,-0.00056820,0.00005561,-0.00038414,0.000
 50205,-0.00025823,-0.00000212,-0.00008164,-0.00006865,0.00001132,-0.00
 014930,0.00001100,0.00000316,0.00002309,0.00007177,0.00010846,-0.00000
 144,0.00000853,-0.00011780,0.00005914,0.00007800,0.00047111,0.00004861
 ,-0.00011036,0.00014062,0.00016792,0.00016561,-0.00057224,-0.00456259,
 -0.00148460,0.00188461,0.00090367,-0.00022301,-0.06859445,0.03936117,-
 0.00030085,-0.00025838,-0.00049786,-0.00002068,-0.00006916,0.00000253,
 0.00032492,0.00108618,-0.00049857,0.00265059,0.00157015,-0.00387161,0.
 02520047,-0.00752696,0.00446476,-0.01656608,0.00926783,-0.05646388,-0.
 00066605,-0.00016586,0.00075919,0.00103049,-0.00105192,-0.00104387,-0.
 00005839,-0.00005513,0.00015910,-0.00005101,0.00025823,0.00028431,-0.0
 0000668,-0.00001474,-0.00002002,0.00003162,-0.00004594,0.00006155,-0.0
 0000084,0.00003221,0.00007180,0.00007444,-0.00010998,0.00007203,-0.000
 09351,0.00012495,0.00036172,0.00008031,0.00026049,0.00056581,0.0013715
 6,-0.00004621,-0.00005391,-0.00034885,-0.00125503,0.00103549,-0.025586
 05,0.00634180,0.00162720,0.01293461,-0.00834253,0.05298423\\0.00000054
 ,0.00000422,0.00000138,0.00000154,-0.00000439,0.00000146,-0.00001138,-
 0.00000211,0.00000033,-0.00001121,0.00000233,0.00000022,0.00001261,0.0
 0000312,0.00000577,0.00000205,-0.00000263,-0.00000743,0.00001208,-0.00
 000334,0.00000551,0.00000179,0.00000264,-0.00000725,-0.00000281,-0.000
 00334,-0.00000143,0.00000160,-0.00000051,-0.00000085,0.00000174,0.0000
 0032,0.00000017,-0.00000122,0.00000065,0.00000049,-0.00000254,0.000000
 23,0.00000224,-0.00000068,0.00000083,-0.00000068,-0.00000220,-0.000000
 15,0.00000217,-0.00000063,-0.00000076,-0.00000069,-0.00000151,-0.00000
 073,0.00000080,0.00000163,-0.00000026,0.00000002,-0.00000280,0.0000033
 7,-0.00000139,0.00000140,0.00000052,-0.00000083\\\@


 When I told the people of Northern Ireland that I was
 an atheist, a woman in the audience stood up and said,
 "Yes, but is it the God of the Catholics or the God
 of the Protestants in whom you don't believe?"
                               -- Quentin Crisp
 Job cpu time:       0 days  1 hours 52 minutes 23.4 seconds.
 Elapsed time:       0 days  0 hours  9 minutes 22.5 seconds.
 File lengths (MBytes):  RWF=    167 Int=      0 D2E=      0 Chk=     32 Scr=      1
 Normal termination of Gaussian 16 at Fri Jun 10 22:11:14 2022.
