 Entering Gaussian System, Link 0=g16
 Input=ts_zmat_field_N75.gjf
 Output=ts_zmat_field_N75.out
 Initial command:
 /software/gaussian/g16-a03/l1.exe "/local_scratch/11174581/Gau-7429.inp" -scrdir="/local_scratch/11174581/"
 Entering Link 1 = /software/gaussian/g16-a03/l1.exe PID=      7430.
  
 Copyright (c) 1988,1990,1992,1993,1995,1998,2003,2009,2016,
            Gaussian, Inc.  All Rights Reserved.
  
 This is part of the Gaussian(R) 16 program.  It is based on
 the Gaussian(R) 09 system (copyright 2009, Gaussian, Inc.),
 the Gaussian(R) 03 system (copyright 2003, Gaussian, Inc.),
 the Gaussian(R) 98 system (copyright 1998, Gaussian, Inc.),
 the Gaussian(R) 94 system (copyright 1995, Gaussian, Inc.),
 the Gaussian 92(TM) system (copyright 1992, Gaussian, Inc.),
 the Gaussian 90(TM) system (copyright 1990, Gaussian, Inc.),
 the Gaussian 88(TM) system (copyright 1988, Gaussian, Inc.),
 the Gaussian 86(TM) system (copyright 1986, Carnegie Mellon
 University), and the Gaussian 82(TM) system (copyright 1983,
 Carnegie Mellon University). Gaussian is a federally registered
 trademark of Gaussian, Inc.
  
 This software contains proprietary and confidential information,
 including trade secrets, belonging to Gaussian, Inc.
  
 This software is provided under written license and may be
 used, copied, transmitted, or stored only in accord with that
 written license.
  
 The following legend is applicable only to US Government
 contracts under FAR:
  
                    RESTRICTED RIGHTS LEGEND
  
 Use, reproduction and disclosure by the US Government is
 subject to restrictions as set forth in subparagraphs (a)
 and (c) of the Commercial Computer Software - Restricted
 Rights clause in FAR 52.227-19.
  
 Gaussian, Inc.
 340 Quinnipiac St., Bldg. 40, Wallingford CT 06492
  
  
 ---------------------------------------------------------------
 Warning -- This program may not be used in any manner that
 competes with the business of Gaussian, Inc. or will provide
 assistance to any competitor of Gaussian, Inc.  The licensee
 of this program is prohibited from giving any competitor of
 Gaussian, Inc. access to this program.  By using this program,
 the user acknowledges that Gaussian, Inc. is engaged in the
 business of creating and licensing software in the field of
 computational chemistry and represents and warrants to the
 licensee that it is not a competitor of Gaussian, Inc. and that
 it will not use this program in any manner prohibited above.
 ---------------------------------------------------------------
  

 Cite this work as:
 Gaussian 16, Revision A.03,
 M. J. Frisch, G. W. Trucks, H. B. Schlegel, G. E. Scuseria, 
 M. A. Robb, J. R. Cheeseman, G. Scalmani, V. Barone, 
 G. A. Petersson, H. Nakatsuji, X. Li, M. Caricato, A. V. Marenich, 
 J. Bloino, B. G. Janesko, R. Gomperts, B. Mennucci, H. P. Hratchian, 
 J. V. Ortiz, A. F. Izmaylov, J. L. Sonnenberg, D. Williams-Young, 
 F. Ding, F. Lipparini, F. Egidi, J. Goings, B. Peng, A. Petrone, 
 T. Henderson, D. Ranasinghe, V. G. Zakrzewski, J. Gao, N. Rega, 
 G. Zheng, W. Liang, M. Hada, M. Ehara, K. Toyota, R. Fukuda, 
 J. Hasegawa, M. Ishida, T. Nakajima, Y. Honda, O. Kitao, H. Nakai, 
 T. Vreven, K. Throssell, J. A. Montgomery, Jr., J. E. Peralta, 
 F. Ogliaro, M. J. Bearpark, J. J. Heyd, E. N. Brothers, K. N. Kudin, 
 V. N. Staroverov, T. A. Keith, R. Kobayashi, J. Normand, 
 K. Raghavachari, A. P. Rendell, J. C. Burant, S. S. Iyengar, 
 J. Tomasi, M. Cossi, J. M. Millam, M. Klene, C. Adamo, R. Cammi, 
 J. W. Ochterski, R. L. Martin, K. Morokuma, O. Farkas, 
 J. B. Foresman, and D. J. Fox, Gaussian, Inc., Wallingford CT, 2016.
 
 ******************************************
 Gaussian 16:  ES64L-G16RevA.03 25-Dec-2016
                10-Jun-2022 
 ******************************************
 %nprocshared=12
 Will use up to   12 processors via shared memory.
 %chk=checkpoint.chk
 %mem=12GB
 ----------------------------------------------------------------------
 # Opt=(TS, CalcFC, noeigentest, Z-matrix, MaxStep=10) geom=allcheckpoi
 nt guess=read Field=read NoSymm B3LYP/Def2TZVP freq=noraman pop=none
 ----------------------------------------------------------------------
 1/5=1,8=10,10=4,11=1,18=40,26=3,29=7,38=1/1,3;
 2/12=2,15=1,29=3,40=1/2;
 3/5=44,7=101,11=2,14=-6,25=1,30=1,71=2,74=-5,116=-2,140=1/1,2,3;
 4/5=1/1;
 5/5=2,38=6/2;
 8/6=4,10=90,11=11/1;
 11/6=1,8=1,9=11,15=111,16=1,31=1/1,2,10;
 10/6=1,13=1,31=1/2;
 7/10=1,18=20,25=1,30=1/1,2,3,16;
 1/5=1,8=10,10=4,11=1,18=40,26=3/3(2);
 2/15=1,29=3/2;
 99//99;
 2/15=1,29=3/2;
 3/5=44,7=101,11=2,14=-2,25=1,30=1,71=1,74=-5/1,2,3;
 4/5=5,16=3,69=1/1;
 5/5=2,38=5/2;
 7/30=1/1,2,3,16;
 1/5=1,8=10,11=1,18=40,26=3/3(-5);
 2/15=1,29=3/2;
 99/9=1/99;
 Structure from the checkpoint file:  "checkpoint.chk"
 -----------------
 ts_zmat_initalOpt
 -----------------
 Charge =  0 Multiplicity = 1
 Z-Matrix found in chk file.
 H
 C,1,R2
 H,2,R3,1,A3
 C,2,R4,1,A4,3,D4,0
 C,2,R5,1,A5,3,D5,0
 H,5,R6,2,A6,1,D6,0
 C,4,R7,2,A7,1,D7,0
 C,5,R8,2,A8,6,D8,0
 H,4,R9,2,A9,7,D9,0
 H,4,R10,2,A10,7,D10,0
 H,8,R11,5,A11,2,D11,0
 C,8,R12,5,A12,11,D12,0
 C,7,R13,4,A13,2,D13,0
 H,7,R14,4,A14,13,D14,0
 H,12,R15,8,A15,5,D15,0
 H,12,R16,8,A16,15,D16,0
 C,13,R17,7,A17,4,D17,0
 H,13,R18,7,A18,17,D18,0
 H,17,R19,13,A19,7,D19,0
 H,17,R20,13,A20,19,D20,0
      Variables:
 R2=1.09062144
 R3=1.09101632
 R4=1.53913471
 R5=1.52480892
 R6=1.0843291
 R7=1.52342584
 R8=1.3920218
 R9=1.09086913
 R10=1.09042379
 R11=1.08758957
 R12=1.37626789
 R13=1.39189762
 R14=1.08431322
 R15=1.07989513
 R16=1.08182878
 R17=1.37712122
 R18=1.08758918
 R19=1.07934639
 R20=1.08199902
 A3=106.83323245
 A4=112.30134857
 A5=110.24984351
 A6=116.28187173
 A7=102.09449982
 A8=124.26661982
 A9=112.85088311
 A10=112.63145157
 A11=116.29916318
 A12=124.84585335
 A13=123.97079359
 A14=116.39472986
 A15=121.20760246
 A16=120.26025417
 A17=124.74526731
 A18=116.32711767
 A19=121.36532011
 A20=120.11907415
 D4=124.44282734
 D5=-122.15884904
 D6=-18.28726806
 D7=115.18825793
 D8=160.88349355
 D9=-119.33991394
 D10=119.85790363
 D11=-175.44301908
 D12=-165.14227357
 D13=102.38448438
 D14=161.4378296
 D15=-25.25925928
 D16=-159.35317152
 D17=-18.38931182
 D18=-165.0040741
 D19=26.25798602
 D20=159.19231007
 Recover connectivity data from disk.

 GradGradGradGradGradGradGradGradGradGradGradGradGradGradGradGradGradGrad
 Berny optimization.
 Initialization pass.
                       ----------------------------
                       !    Initial Parameters    !
                       ! (Angstroms and Degrees)  !
 ----------------------                            ----------------------
 !      Name          Value   Derivative information (Atomic Units)     !
 ------------------------------------------------------------------------
 !       R2          1.0906   calculate D2E/DX2 analytically            !
 !       R3          1.091    calculate D2E/DX2 analytically            !
 !       R4          1.5391   calculate D2E/DX2 analytically            !
 !       R5          1.5248   calculate D2E/DX2 analytically            !
 !       R6          1.0843   calculate D2E/DX2 analytically            !
 !       R7          1.5234   calculate D2E/DX2 analytically            !
 !       R8          1.392    calculate D2E/DX2 analytically            !
 !       R9          1.0909   calculate D2E/DX2 analytically            !
 !       R10         1.0904   calculate D2E/DX2 analytically            !
 !       R11         1.0876   calculate D2E/DX2 analytically            !
 !       R12         1.3763   calculate D2E/DX2 analytically            !
 !       R13         1.3919   calculate D2E/DX2 analytically            !
 !       R14         1.0843   calculate D2E/DX2 analytically            !
 !       R15         1.0799   calculate D2E/DX2 analytically            !
 !       R16         1.0818   calculate D2E/DX2 analytically            !
 !       R17         1.3771   calculate D2E/DX2 analytically            !
 !       R18         1.0876   calculate D2E/DX2 analytically            !
 !       R19         1.0793   calculate D2E/DX2 analytically            !
 !       R20         1.082    calculate D2E/DX2 analytically            !
 !       A3        106.8332   calculate D2E/DX2 analytically            !
 !       A4        112.3013   calculate D2E/DX2 analytically            !
 !       A5        110.2498   calculate D2E/DX2 analytically            !
 !       A6        116.2819   calculate D2E/DX2 analytically            !
 !       A7        102.0945   calculate D2E/DX2 analytically            !
 !       A8        124.2666   calculate D2E/DX2 analytically            !
 !       A9        112.8509   calculate D2E/DX2 analytically            !
 !       A10       112.6315   calculate D2E/DX2 analytically            !
 !       A11       116.2992   calculate D2E/DX2 analytically            !
 !       A12       124.8459   calculate D2E/DX2 analytically            !
 !       A13       123.9708   calculate D2E/DX2 analytically            !
 !       A14       116.3947   calculate D2E/DX2 analytically            !
 !       A15       121.2076   calculate D2E/DX2 analytically            !
 !       A16       120.2603   calculate D2E/DX2 analytically            !
 !       A17       124.7453   calculate D2E/DX2 analytically            !
 !       A18       116.3271   calculate D2E/DX2 analytically            !
 !       A19       121.3653   calculate D2E/DX2 analytically            !
 !       A20       120.1191   calculate D2E/DX2 analytically            !
 !       D4        124.4428   calculate D2E/DX2 analytically            !
 !       D5       -122.1588   calculate D2E/DX2 analytically            !
 !       D6        -18.2873   calculate D2E/DX2 analytically            !
 !       D7        115.1883   calculate D2E/DX2 analytically            !
 !       D8        160.8835   calculate D2E/DX2 analytically            !
 !       D9       -119.3399   calculate D2E/DX2 analytically            !
 !       D10       119.8579   calculate D2E/DX2 analytically            !
 !       D11      -175.443    calculate D2E/DX2 analytically            !
 !       D12      -165.1423   calculate D2E/DX2 analytically            !
 !       D13       102.3845   calculate D2E/DX2 analytically            !
 !       D14       161.4378   calculate D2E/DX2 analytically            !
 !       D15       -25.2593   calculate D2E/DX2 analytically            !
 !       D16      -159.3532   calculate D2E/DX2 analytically            !
 !       D17       -18.3893   calculate D2E/DX2 analytically            !
 !       D18      -165.0041   calculate D2E/DX2 analytically            !
 !       D19        26.258    calculate D2E/DX2 analytically            !
 !       D20       159.1923   calculate D2E/DX2 analytically            !
 ------------------------------------------------------------------------
 Trust Radius=1.00D-01 FncErr=1.00D-07 GrdErr=1.00D-06 EigMax=2.50D+02 EigMin=1.00D-04
 Number of steps in this run=     64 maximum allowed number of steps=    108.
 Search for a saddle point of order  1.
 GradGradGradGradGradGradGradGradGradGradGradGradGradGradGradGradGradGrad

 ---------------------------------------------------------------------------------------------------
                            Z-MATRIX (ANGSTROMS AND DEGREES)
   CD    Cent   Atom    N1       Length/X        N2       Alpha/Y        N3        Beta/Z          J
 ---------------------------------------------------------------------------------------------------
      1      1  H 
      2      2  C        1   1.090621(     1)
      3      3  H        2   1.091016(     2)      1  106.833(    20)
      4      4  C        2   1.539135(     3)      1  112.301(    21)      3  124.443(    38)      0
      5      5  C        2   1.524809(     4)      1  110.250(    22)      3 -122.159(    39)      0
      6      6  H        5   1.084329(     5)      2  116.282(    23)      1  -18.287(    40)      0
      7      7  C        4   1.523426(     6)      2  102.094(    24)      1  115.188(    41)      0
      8      8  C        5   1.392022(     7)      2  124.267(    25)      6  160.883(    42)      0
      9      9  H        4   1.090869(     8)      2  112.851(    26)      7 -119.340(    43)      0
     10     10  H        4   1.090424(     9)      2  112.631(    27)      7  119.858(    44)      0
     11     11  H        8   1.087590(    10)      5  116.299(    28)      2 -175.443(    45)      0
     12     12  C        8   1.376268(    11)      5  124.846(    29)     11 -165.142(    46)      0
     13     13  C        7   1.391898(    12)      4  123.971(    30)      2  102.384(    47)      0
     14     14  H        7   1.084313(    13)      4  116.395(    31)     13  161.438(    48)      0
     15     15  H       12   1.079895(    14)      8  121.208(    32)      5  -25.259(    49)      0
     16     16  H       12   1.081829(    15)      8  120.260(    33)     15 -159.353(    50)      0
     17     17  C       13   1.377121(    16)      7  124.745(    34)      4  -18.389(    51)      0
     18     18  H       13   1.087589(    17)      7  116.327(    35)     17 -165.004(    52)      0
     19     19  H       17   1.079346(    18)     13  121.365(    36)      7   26.258(    53)      0
     20     20  H       17   1.081999(    19)     13  120.119(    37)     19  159.192(    54)      0
 ---------------------------------------------------------------------------------------------------
                         Z-Matrix orientation:                         
 ---------------------------------------------------------------------
 Center     Atomic      Atomic             Coordinates (Angstroms)
 Number     Number       Type             X           Y           Z
 ---------------------------------------------------------------------
      1          1           0        0.000000    0.000000    0.000000
      2          6           0        0.000000    0.000000    1.090621
      3          1           0        1.044268    0.000000    1.406566
      4          6           0       -0.805396    1.174367    1.674689
      5          6           0       -0.761444   -1.211081    1.618380
      6          1           0       -1.429536   -1.700533    0.918480
      7          6           0       -1.948016    0.457123    2.382366
      8          6           0       -0.392904   -1.937764    2.747023
      9          1           0       -1.182238    1.852525    0.907821
     10          1           0       -0.220910    1.780623    2.367404
     11          1           0       -0.984509   -2.824269    2.963733
     12          6           0        0.440650   -1.477783    3.740863
     13          6           0       -2.009356    0.261210    3.759041
     14          1           0       -2.875162    0.363307    1.827988
     15          1           0        1.173471   -0.709082    3.545299
     16          1           0        0.619235   -2.077299    4.623497
     17          6           0       -0.932403    0.347995    4.612916
     18          1           0       -2.909607   -0.216630    4.138602
     19          1           0       -0.074651    0.958474    4.375079
     20          1           0       -1.046947    0.095259    5.658730
 ---------------------------------------------------------------------
                    Distance matrix (angstroms):
                    1          2          3          4          5
     1  H    0.000000
     2  C    1.090621   0.000000
     3  H    1.751834   1.091016   0.000000
     4  C    2.198268   1.539135   2.207325   0.000000
     5  C    2.160015   1.524809   2.184531   2.386517   0.000000
     6  H    2.403953   2.228232   3.041339   3.037507   1.084329
     7  C    3.111172   2.381666   3.180395   1.523426   2.185070
     8  C    3.384588   2.579335   2.759931   3.317440   1.392022
     9  H    2.377746   2.205210   2.939035   1.090869   3.172955
    10  H    2.970525   2.202179   2.386316   1.090424   3.131055
    11  H    4.210637   3.529065   3.810145   4.205093   2.112371
    12  C    4.046242   3.066235   2.827922   3.585472   2.453792
    13  C    4.270378   3.350553   3.863546   2.574470   2.882248
    14  H    3.426381   2.990361   3.958727   2.228284   2.643943
    15  H    3.801181   2.811631   2.256916   3.310963   2.776493
    16  H    5.106402   4.144856   3.852852   4.615016   3.418675
    17  C    4.719054   3.660196   3.782725   3.054865   3.380413
    18  H    5.063672   4.219352   4.810830   3.526109   3.457609
    19  H    4.479460   3.422267   3.314020   2.805834   3.574639
    20  H    5.755553   4.687514   4.739531   4.134658   4.255874
                    6          7          8          9         10
     6  H    0.000000
     7  C    2.658432   0.000000
     8  C    2.115290   2.878686   0.000000
     9  H    3.561670   2.169757   4.286258   0.000000
    10  H    3.959621   2.175953   3.741670   1.749201   0.000000
    11  H    2.375688   3.468986   1.087590   5.112561   4.705712
    12  C    3.393090   3.360819   1.376268   4.663781   3.597397
    13  C    3.500487   1.391898   2.910771   3.368362   2.728334
    14  H    2.678894   1.084313   3.507301   2.435255   3.056928
    15  H    3.828680   3.529324   2.144862   4.366633   3.087129
    16  H    4.250478   4.246969   2.136598   5.700445   4.547456
    17  C    4.253523   2.453311   2.999552   4.006714   2.756986
    18  H    3.842104   2.112574   3.351506   4.207512   3.788833
    19  H    4.566630   2.780604   3.337671   3.748060   2.174415
    20  H    5.083425   3.417226   3.610955   5.067289   3.788880
                   11         12         13         14         15
    11  H    0.000000
    12  C    2.109036   0.000000
    13  C    3.347089   3.004490   0.000000
    14  H    3.876226   4.247742   2.118728   0.000000
    15  H    3.077192   1.079895   3.334297   4.526655   0.000000
    16  H    2.425856   1.081829   3.622899   5.097278   1.828033
    17  C    3.575720   2.445244   1.377121   3.395640   2.586875
    18  H    3.447622   3.601795   1.087589   2.382531   4.155243
    19  H    4.138706   2.569653   2.146803   3.832070   2.242117
    20  H    3.973732   2.892338   2.136022   4.253093   3.169197
                   16         17         18         19         20
    16  H    0.000000
    17  C    2.879191   0.000000
    18  H    4.018699   2.110240   0.000000
    19  H    3.123957   1.079346   3.077948   0.000000
    20  H    2.927094   1.081999   2.424369   1.827090   0.000000
 Symmetry turned off by external request.
 Stoichiometry    C8H12
 Framework group  C1[X(C8H12)]
 Deg. of freedom    54
 Full point group                 C1      NOp   1
 Rotational constants (GHZ):           2.4937718           2.3046072           1.5807918
 Standard basis: def2TZVP (5D, 7F)
 The following finite field(s) will be applied:
 An electric field of             -0.0049 -0.0048  0.0031
   320 basis functions,   504 primitive gaussians,   360 cartesian basis functions
    30 alpha electrons       30 beta electrons
       nuclear repulsion energy       368.0966572503 Hartrees.
 NAtoms=   20 NActive=   20 NUniq=   20 SFac= 1.00D+00 NAtFMM=   60 NAOKFM=F Big=F
 Integral buffers will be    131072 words long.
 Raffenetti 2 integral format.
 Two-electron integral symmetry is turned off.
 One-electron integrals computed using PRISM.
   1 Symmetry operations used in ECPInt.
 ECPInt:  NShTT=    9316 NPrTT=   27240 LenC2=    9238 LenP2D=   22131.
 LDataN:  DoStor=T MaxTD1= 6 Len=  172
 NBasis=   320 RedAO= T EigKep=  2.62D-05  NBF=   320
 NBsUse=   320 1.00D-06 EigRej= -1.00D+00 NBFU=   320
 The nuclear repulsion energy is now       369.6170889537 hartrees.
 Initial guess from the checkpoint file:  "checkpoint.chk"
 B after Tr=     0.000000   -0.000000    0.000000
         Rot=    1.000000   -0.000000    0.000000    0.000000 Ang=   0.00 deg.
 Requested convergence on RMS density matrix=1.00D-08 within 128 cycles.
 Requested convergence on MAX density matrix=1.00D-06.
 Requested convergence on             energy=1.00D-06.
 No special actions if energy rises.
 SCF Done:  E(RB3LYP) =  -312.082681368     A.U. after   10 cycles
            NFock= 10  Conv=0.73D-08     -V/T= 2.0056
 DoSCS=F DFT=T ScalE2(SS,OS)=  1.000000  1.000000
 Range of M.O.s used for correlation:     1   320
 NBasis=   320 NAE=    30 NBE=    30 NFC=     0 NFV=     0
 NROrb=    320 NOA=    30 NOB=    30 NVA=   290 NVB=   290

 **** Warning!!: The largest alpha MO coefficient is  0.35905561D+02

   1 Symmetry operations used in ECPInt.
 ECPInt:  NShTT=    9316 NPrTT=   27240 LenC2=    9238 LenP2D=   22131.
 LDataN:  DoStor=T MaxTD1= 7 Len=  274
 Symmetrizing basis deriv contribution to polar:
 IMax=3 JMax=2 DiffMx= 0.00D+00
 G2DrvN: will do    21 centers at a time, making    1 passes.
 Calling FoFCou, ICntrl=  3107 FMM=F I1Cent=   0 AccDes= 0.00D+00.
 End of G2Drv F.D. properties file   721 does not exist.
 End of G2Drv F.D. properties file   722 does not exist.
 End of G2Drv F.D. properties file   788 does not exist.
          IDoAtm=11111111111111111111
          Differentiating once with respect to nuclear coordinates.
 Keep R1 ints in memory in canonical form, NReq=1342482924.
          There are    63 degrees of freedom in the 1st order CPHF.  IDoFFX=6 NUNeed=     0.
     57 vectors produced by pass  0 Test12= 1.38D-14 1.59D-09 XBig12= 9.95D-02 1.10D-01.
 AX will form    57 AO Fock derivatives at one time.
     57 vectors produced by pass  1 Test12= 1.38D-14 1.59D-09 XBig12= 6.63D-03 1.16D-02.
     57 vectors produced by pass  2 Test12= 1.38D-14 1.59D-09 XBig12= 8.08D-05 1.00D-03.
     57 vectors produced by pass  3 Test12= 1.38D-14 1.59D-09 XBig12= 2.95D-07 7.17D-05.
     57 vectors produced by pass  4 Test12= 1.38D-14 1.59D-09 XBig12= 5.23D-10 2.92D-06.
     50 vectors produced by pass  5 Test12= 1.38D-14 1.59D-09 XBig12= 6.73D-13 1.21D-07.
      7 vectors produced by pass  6 Test12= 1.38D-14 1.59D-09 XBig12= 8.12D-16 3.53D-09.
 InvSVY:  IOpt=1 It=  1 EMax= 5.27D-16
 Solved reduced A of dimension   342 with    63 vectors.
 End of Minotr F.D. properties file   721 does not exist.
 End of Minotr F.D. properties file   722 does not exist.
 End of Minotr F.D. properties file   788 does not exist.
   1 Symmetry operations used in ECPInt.
 ECPInt:  NShTT=    9316 NPrTT=   27240 LenC2=    9238 LenP2D=   22131.
 LDataN:  DoStor=T MaxTD1= 8 Len=  415
 Calling FoFJK, ICntrl=    100147 FMM=F ISym2X=0 I1Cent= 0 IOpClX= 0 NMat=1 NMatS=1 NMatT=0.
 -------------------------------------------------------------------
 Center     Atomic                   Forces (Hartrees/Bohr)
 Number     Number              X              Y              Z
 -------------------------------------------------------------------
      1        1           0.000510474    0.000291395    0.000222162
      2        6          -0.000281604   -0.000002186   -0.000149992
      3        1          -0.000201936   -0.000175157   -0.000173166
      4        6          -0.000009223    0.000185211   -0.000042283
      5        6           0.000194161    0.000119143    0.000047761
      6        1          -0.000093187   -0.000099102   -0.000105537
      7        6           0.000183105    0.000111810    0.000041114
      8        6           0.000071044    0.000206876   -0.000090547
      9        1           0.000174619   -0.000091662    0.000176536
     10        1          -0.000093394   -0.000033208   -0.000233230
     11        1          -0.000237319   -0.000346415    0.000106589
     12        6          -0.000068227    0.000210108    0.000015441
     13        6           0.000168758    0.000108089   -0.000173805
     14        1          -0.000149203   -0.000002699   -0.000069540
     15        1          -0.000002851   -0.000167079    0.000047670
     16        1           0.000128464   -0.000062268    0.000064680
     17        6           0.000152388   -0.000094176   -0.000117471
     18        1          -0.000352308   -0.000219350    0.000161462
     19        1          -0.000110252   -0.000007810    0.000119671
     20        1           0.000016492    0.000068479    0.000152485
 -------------------------------------------------------------------
 Cartesian Forces:  Max     0.000510474 RMS     0.000165531
 -----------------------------------------------------------------------------------------------
                       Internal Coordinate Forces (Hartree/Bohr or radian)
  Cent   Atom   N1       Length/X         N2         Alpha/Y        N3         Beta/Z          J
 -----------------------------------------------------------------------------------------------
      1  H 
      2  C        1  -0.000222(     1)
      3  H        2  -0.000243(     2)      1  -0.000221(    20)
      4  C        2   0.000034(     3)      1  -0.000137(    21)      3  -0.000096(    38)     0
      5  C        2   0.000144(     4)      1  -0.000258(    22)      3  -0.000233(    39)     0
      6  H        5   0.000170(     5)      2   0.000030(    23)      1  -0.000044(    40)     0
      7  C        4   0.000138(     6)      2  -0.000141(    24)      1  -0.000417(    41)     0
      8  C        5   0.000171(     7)      2   0.000587(    25)      6  -0.000082(    42)     0
      9  H        4  -0.000241(     8)      2  -0.000001(    26)      7  -0.000206(    43)     0
     10  H        4  -0.000217(     9)      2   0.000041(    27)      7   0.000247(    44)     0
     11  H        8   0.000433(    10)      5   0.000029(    28)      2  -0.000146(    45)     0
     12  C        8   0.000121(    11)      5   0.000224(    29)     11  -0.000117(    46)     0
     13  C        7   0.000167(    12)      4   0.000668(    30)      2   0.000012(    47)     0
     14  H        7   0.000163(    13)      4   0.000019(    31)     13  -0.000033(    48)     0
     15  H       12  -0.000129(    14)      8   0.000105(    32)      5  -0.000008(    49)     0
     16  H       12   0.000108(    15)      8   0.000116(    33)     15   0.000173(    50)     0
     17  C       13   0.000140(    16)      7   0.000289(    34)      4   0.000122(    51)     0
     18  H       13   0.000444(    17)      7   0.000021(    35)     17   0.000051(    52)     0
     19  H       17  -0.000118(    18)     13   0.000117(    36)      7   0.000004(    53)     0
     20  H       17   0.000130(    19)     13   0.000110(    37)     19  -0.000163(    54)     0
 -----------------------------------------------------------------------------------------------
 Internal  Forces:  Max     0.000668368 RMS     0.000212529

 GradGradGradGradGradGradGradGradGradGradGradGradGradGradGradGradGradGrad
 Berny optimization.
 Search for a saddle point.
 Step number   1 out of a maximum of   64
 All quantities printed in internal units (Hartrees-Bohrs-Radians)
 Swapping is turned off.
 Second derivative matrix not updated -- analytic derivatives used.
 ITU=  0
     Eigenvalues ---   -0.19992   0.00375   0.01613   0.02366   0.03256
     Eigenvalues ---    0.04226   0.05676   0.06050   0.06912   0.08536
     Eigenvalues ---    0.10434   0.11362   0.11732   0.12395   0.14386
     Eigenvalues ---    0.14661   0.15233   0.16158   0.16897   0.17594
     Eigenvalues ---    0.19946   0.22011   0.22668   0.24066   0.26076
     Eigenvalues ---    0.27520   0.27960   0.29413   0.29647   0.31916
     Eigenvalues ---    0.33207   0.33308   0.33449   0.33530   0.34003
     Eigenvalues ---    0.34666   0.34895   0.35131   0.35612   0.35707
     Eigenvalues ---    0.36056   0.36783   0.36962   0.38323   0.41949
     Eigenvalues ---    0.45433   0.46806   0.49863   0.53061   0.54750
     Eigenvalues ---    0.75826   0.81459   1.84638   3.60347
 Eigenvectors required to have negative eigenvalues:
                          D8        D13       D19       A7        D6
   1                    0.41706  -0.37098   0.25654   0.25271   0.23674
                          R13       R8        D5        D14       R17
   1                   -0.23225  -0.22455   0.22186   0.21961   0.21802
 RFO step:  Lambda0=1.344111770D-08 Lambda=-3.02664430D-05.
 Linear search not attempted -- option 19 set.
 Variable       Old X    -DE/DX   Delta X   Delta X   Delta X     New X
                                 (Linear)    (Quad)   (Total)
    R2        2.06098  -0.00022   0.00000  -0.00081  -0.00081   2.06016
    R3        2.06172  -0.00024   0.00000  -0.00029  -0.00029   2.06144
    R4        2.90854   0.00003   0.00000  -0.00041  -0.00041   2.90814
    R5        2.88147   0.00014   0.00000   0.00151   0.00151   2.88299
    R6        2.04909   0.00017   0.00000   0.00052   0.00052   2.04960
    R7        2.87886   0.00014   0.00000  -0.00099  -0.00099   2.87786
    R8        2.63054   0.00017   0.00000   0.00041   0.00041   2.63095
    R9        2.06144  -0.00024   0.00000  -0.00059  -0.00059   2.06086
   R10        2.06060  -0.00022   0.00000  -0.00109  -0.00109   2.05951
   R11        2.05525   0.00043   0.00000   0.00125   0.00125   2.05649
   R12        2.60077   0.00012   0.00000  -0.00041  -0.00041   2.60036
   R13        2.63031   0.00017   0.00000  -0.00007  -0.00007   2.63023
   R14        2.04906   0.00016   0.00000   0.00043   0.00043   2.04948
   R15        2.04071  -0.00013   0.00000   0.00017   0.00017   2.04088
   R16        2.04436   0.00011   0.00000   0.00028   0.00028   2.04464
   R17        2.60238   0.00014   0.00000   0.00074   0.00074   2.60313
   R18        2.05525   0.00044   0.00000   0.00127   0.00127   2.05652
   R19        2.03967  -0.00012   0.00000  -0.00048  -0.00048   2.03919
   R20        2.04468   0.00013   0.00000   0.00064   0.00064   2.04532
    A3        1.86459  -0.00022   0.00000   0.00178   0.00178   1.86637
    A4        1.96003  -0.00014   0.00000  -0.00415  -0.00415   1.95588
    A5        1.92422  -0.00026   0.00000  -0.00781  -0.00781   1.91642
    A6        2.02950   0.00003   0.00000  -0.00200  -0.00200   2.02750
    A7        1.78189  -0.00014   0.00000  -0.00245  -0.00245   1.77944
    A8        2.16886   0.00059   0.00000   0.00476   0.00476   2.17362
    A9        1.96962  -0.00000   0.00000   0.00291   0.00291   1.97253
   A10        1.96579   0.00004   0.00000  -0.00253  -0.00253   1.96326
   A11        2.02980   0.00003   0.00000  -0.00066  -0.00066   2.02915
   A12        2.17897   0.00022   0.00000   0.00131   0.00131   2.18028
   A13        2.16370   0.00067   0.00000   0.00100   0.00100   2.16470
   A14        2.03147   0.00002   0.00000  -0.00066  -0.00066   2.03082
   A15        2.11547   0.00010   0.00000  -0.00127  -0.00127   2.11420
   A16        2.09894   0.00012   0.00000   0.00117   0.00117   2.10011
   A17        2.17722   0.00029   0.00000   0.00046   0.00046   2.17767
   A18        2.03029   0.00002   0.00000  -0.00052  -0.00052   2.02977
   A19        2.11822   0.00012   0.00000   0.00159   0.00159   2.11981
   A20        2.09647   0.00011   0.00000  -0.00112  -0.00112   2.09535
    D4        2.17194  -0.00010   0.00000   0.00241   0.00241   2.17434
    D5       -2.13207  -0.00023   0.00000  -0.00330  -0.00330  -2.13537
    D6       -0.31917  -0.00004   0.00000   0.04367   0.04367  -0.27551
    D7        2.01041  -0.00042   0.00000  -0.05194  -0.05194   1.95847
    D8        2.80795  -0.00008   0.00000  -0.00290  -0.00290   2.80505
    D9       -2.08287  -0.00021   0.00000  -0.00522  -0.00522  -2.08809
   D10        2.09192   0.00025   0.00000  -0.00411  -0.00411   2.08780
   D11       -3.06206  -0.00015   0.00000   0.00758   0.00758  -3.05448
   D12       -2.88228  -0.00012   0.00000  -0.00093  -0.00093  -2.88321
   D13        1.78695   0.00001   0.00000   0.03051   0.03051   1.81746
   D14        2.81762  -0.00003   0.00000   0.00514   0.00514   2.82276
   D15       -0.44086  -0.00001   0.00000   0.00593   0.00593  -0.43493
   D16       -2.78124   0.00017   0.00000   0.00177   0.00177  -2.77947
   D17       -0.32095   0.00012   0.00000   0.00842   0.00842  -0.31254
   D18       -2.87986   0.00005   0.00000   0.00086   0.00086  -2.87901
   D19        0.45829   0.00000   0.00000   0.00784   0.00784   0.46613
   D20        2.77843  -0.00016   0.00000  -0.00375  -0.00375   2.77468
         Item               Value     Threshold  Converged?
 Maximum Force            0.000668     0.000450     NO 
 RMS     Force            0.000213     0.000300     YES
 Maximum Displacement     0.051942     0.001800     NO 
 RMS     Displacement     0.010563     0.001200     NO 
 Predicted change in Energy=-1.521824D-05
 GradGradGradGradGradGradGradGradGradGradGradGradGradGradGradGradGradGrad

 ---------------------------------------------------------------------------------------------------
                            Z-MATRIX (ANGSTROMS AND DEGREES)
   CD    Cent   Atom    N1       Length/X        N2       Alpha/Y        N3        Beta/Z          J
 ---------------------------------------------------------------------------------------------------
      1      1  H 
      2      2  C        1   1.090190(     1)
      3      3  H        2   1.090865(     2)      1  106.935(    20)
      4      4  C        2   1.538920(     3)      1  112.064(    21)      3  124.581(    38)      0
      5      5  C        2   1.525610(     4)      1  109.803(    22)      3 -122.348(    39)      0
      6      6  H        5   1.084603(     5)      2  116.167(    23)      1  -15.785(    40)      0
      7      7  C        4   1.522900(     6)      2  101.954(    24)      1  112.212(    41)      0
      8      8  C        5   1.392238(     7)      2  124.539(    25)      6  160.718(    42)      0
      9      9  H        4   1.090558(     8)      2  113.018(    26)      7 -119.639(    43)      0
     10     10  H        4   1.089848(     9)      2  112.487(    27)      7  119.622(    44)      0
     11     11  H        8   1.088250(    10)      5  116.262(    28)      2 -175.009(    45)      0
     12     12  C        8   1.376053(    11)      5  124.921(    29)     11 -165.196(    46)      0
     13     13  C        7   1.391858(    12)      4  124.028(    30)      2  104.133(    47)      0
     14     14  H        7   1.084540(    13)      4  116.357(    31)     13  161.732(    48)      0
     15     15  H       12   1.079985(    14)      8  121.135(    32)      5  -24.920(    49)      0
     16     16  H       12   1.081978(    15)      8  120.328(    33)     15 -159.252(    50)      0
     17     17  C       13   1.377515(    16)      7  124.771(    34)      4  -17.907(    51)      0
     18     18  H       13   1.088264(    17)      7  116.297(    35)     17 -164.955(    52)      0
     19     19  H       17   1.079093(    18)     13  121.456(    36)      7   26.707(    53)      0
     20     20  H       17   1.082335(    19)     13  120.055(    37)     19  158.977(    54)      0
 ---------------------------------------------------------------------------------------------------
                         Z-Matrix orientation:                         
 ---------------------------------------------------------------------
 Center     Atomic      Atomic             Coordinates (Angstroms)
 Number     Number       Type             X           Y           Z
 ---------------------------------------------------------------------
      1          1           0        0.000000    0.000000    0.000000
      2          6           0        0.000000    0.000000    1.090190
      3          1           0        1.043559    0.000000    1.407949
      4          6           0       -0.809476    1.174246    1.668263
      5          6           0       -0.768018   -1.212643    1.607038
      6          1           0       -1.402319   -1.719234    0.887740
      7          6           0       -1.990940    0.457893    2.308735
      8          6           0       -0.438588   -1.923976    2.757606
      9          1           0       -1.139158    1.881081    0.906022
     10          1           0       -0.244222    1.749212    2.401523
     11          1           0       -1.027286   -2.817381    2.956474
     12          6           0        0.345074   -1.445219    3.782393
     13          6           0       -2.131413    0.258972    3.679124
     14          1           0       -2.883647    0.362587    1.700278
     15          1           0        1.071822   -0.664758    3.611846
     16          1           0        0.499318   -2.037397    4.674699
     17          6           0       -1.106972    0.351075    4.595413
     18          1           0       -3.049505   -0.226557    4.004219
     19          1           0       -0.243609    0.972546    4.414254
     20          1           0       -1.281527    0.091563    5.631576
 ---------------------------------------------------------------------
                    Distance matrix (angstroms):
                    1          2          3          4          5
     1  H    0.000000
     2  C    1.090190   0.000000
     3  H    1.752523   1.090865   0.000000
     4  C    2.194814   1.538920   2.209153   0.000000
     5  C    2.154745   1.525610   2.189052   2.388034   0.000000
     6  H    2.389633   2.227836   3.034585   3.054981   1.084603
     7  C    3.082818   2.378731   3.198322   1.522900   2.186002
     8  C    3.390934   2.583470   2.778492   3.305028   1.392238
     9  H    2.378449   2.206822   2.924833   1.090558   3.193790
    10  H    2.981057   2.199768   2.388580   1.089848   3.110973
    11  H    4.211140   3.532134   3.824130   4.200002   2.112672
    12  C    4.063770   3.075010   2.866099   3.558669   2.454635
    13  C    4.259805   3.363416   3.912256   2.574647   2.884100
    14  H    3.367170   2.969696   3.954728   2.227555   2.639304
    15  H    3.825721   2.819478   2.302144   3.270892   2.775688
    16  H    5.123779   4.153192   3.888295   4.589799   3.420073
    17  C    4.739880   3.692591   3.861083   3.055212   3.389762
    18  H    5.038311   4.224023   4.852331   3.526566   3.453118
    19  H    4.526680   3.471972   3.411820   2.810935   3.595902
    20  H    5.776274   4.719627   4.822181   4.135563   4.261636
                    6          7          8          9         10
     6  H    0.000000
     7  C    2.665630   0.000000
     8  C    2.113550   2.878295   0.000000
     9  H    3.609967   2.172234   4.289245   0.000000
    10  H    3.957632   2.174199   3.695523   1.747805   0.000000
    11  H    2.371969   3.474999   1.088250   5.127613   4.666362
    12  C    3.392268   3.354171   1.376053   4.641198   3.529655
    13  C    3.498100   1.391858   2.912064   3.362425   2.722971
    14  H    2.681143   1.084540   3.510645   2.445385   3.062848
    15  H    3.828061   3.512685   2.143991   4.323333   3.004015
    16  H    4.249530   4.245662   2.137236   5.678204   4.478682
    17  C    4.256789   2.453917   3.000022   3.994191   2.740854
    18  H    3.828022   2.112746   3.354425   4.205994   3.787071
    19  H    4.585258   2.784106   3.342505   3.732979   2.157382
    20  H    5.079129   3.417417   3.610076   5.055047   3.775850
                   11         12         13         14         15
    11  H    0.000000
    12  C    2.109110   0.000000
    13  C    3.347427   3.007976   0.000000
    14  H    3.890540   4.245939   2.119534   0.000000
    15  H    3.077265   1.079985   3.334444   4.511681   0.000000
    16  H    2.427177   1.081978   3.631146   5.104072   1.827992
    17  C    3.568135   2.448696   1.377515   3.396839   2.597395
    18  H    3.449566   3.613517   1.088264   2.383851   4.163089
    19  H    4.135556   2.567369   2.147884   3.835038   2.248328
    20  H    3.960147   2.902930   2.135977   4.253863   3.192112
                   16         17         18         19         20
    16  H    0.000000
    17  C    2.879454   0.000000
    18  H    4.040152   2.111067   0.000000
    19  H    3.111194   1.079093   3.078803   0.000000
    20  H    2.935897   1.082335   2.423889   1.826274   0.000000
 Symmetry turned off by external request.
 Stoichiometry    C8H12
 Framework group  C1[X(C8H12)]
 Deg. of freedom    54
 Full point group                 C1      NOp   1
 Rotational constants (GHZ):           2.4972158           2.2980756           1.5785790
 Standard basis: def2TZVP (5D, 7F)
 The following finite field(s) will be applied:
 An electric field of             -0.0049 -0.0048  0.0031
   320 basis functions,   504 primitive gaussians,   360 cartesian basis functions
    30 alpha electrons       30 beta electrons
       nuclear repulsion energy       367.9815637604 Hartrees.
 NAtoms=   20 NActive=   20 NUniq=   20 SFac= 1.00D+00 NAtFMM=   60 NAOKFM=F Big=F
 Integral buffers will be    131072 words long.
 Raffenetti 2 integral format.
 Two-electron integral symmetry is turned off.
 One-electron integrals computed using PRISM.
   1 Symmetry operations used in ECPInt.
 ECPInt:  NShTT=    9316 NPrTT=   27240 LenC2=    9237 LenP2D=   22126.
 LDataN:  DoStor=T MaxTD1= 6 Len=  172
 NBasis=   320 RedAO= T EigKep=  2.75D-05  NBF=   320
 NBsUse=   320 1.00D-06 EigRej= -1.00D+00 NBFU=   320
 The nuclear repulsion energy is now       369.5278548980 hartrees.
 Initial guess from the checkpoint file:  "checkpoint.chk"
 B after Tr=     0.119701    0.010671    0.043303
         Rot=    0.999711    0.001200    0.023692   -0.003782 Ang=   2.75 deg.
 ExpMin= 9.52D-02 ExpMax= 1.36D+04 ExpMxC= 4.63D+02 IAcc=2 IRadAn=         4 AccDes= 0.00D+00
 Harris functional with IExCor=  402 and IRadAn=       4 diagonalized for initial guess.
 HarFok:  IExCor=  402 AccDes= 0.00D+00 IRadAn=         4 IDoV= 1 UseB2=F ITyADJ=14
 ICtDFT=  3500011 ScaDFX=  1.000000  1.000000  1.000000  1.000000
 FoFCou: FMM=F IPFlag=           0 FMFlag=      100000 FMFlg1=           0
         NFxFlg=           0 DoJE=T BraDBF=F KetDBF=T FulRan=T
         wScrn=  0.000000 ICntrl=       500 IOpCl=  0 I1Cent=   200000004 NGrid=           0
         NMat0=    1 NMatS0=      1 NMatT0=    0 NMatD0=    1 NMtDS0=    0 NMtDT0=    0
 Symmetry not used in FoFCou.
 Requested convergence on RMS density matrix=1.00D-08 within 128 cycles.
 Requested convergence on MAX density matrix=1.00D-06.
 Requested convergence on             energy=1.00D-06.
 No special actions if energy rises.
 Integral accuracy reduced to 1.0D-05 until final iterations.
 Initial convergence to 1.0D-05 achieved.  Increase integral accuracy.
 SCF Done:  E(RB3LYP) =  -312.082689814     A.U. after   11 cycles
            NFock= 11  Conv=0.31D-08     -V/T= 2.0056
   1 Symmetry operations used in ECPInt.
 ECPInt:  NShTT=    9316 NPrTT=   27240 LenC2=    9237 LenP2D=   22126.
 LDataN:  DoStor=T MaxTD1= 7 Len=  274
 Calling FoFJK, ICntrl=      2127 FMM=F ISym2X=0 I1Cent= 0 IOpClX= 0 NMat=1 NMatS=1 NMatT=0.
 -------------------------------------------------------------------
 Center     Atomic                   Forces (Hartrees/Bohr)
 Number     Number              X              Y              Z
 -------------------------------------------------------------------
      1        1           0.000743622    0.000484785   -0.000009001
      2        6          -0.000794355   -0.000100178    0.000018339
      3        1          -0.000007777   -0.000321665    0.000000153
      4        6           0.000005758   -0.000070117   -0.000025035
      5        6          -0.000000745    0.000035063   -0.000037130
      6        1          -0.000003676    0.000002711   -0.000005025
      7        6           0.000008178   -0.000007599   -0.000058024
      8        6          -0.000047281    0.000042000    0.000085490
      9        1          -0.000002143   -0.000002753   -0.000015050
     10        1           0.000028146    0.000029217   -0.000001266
     11        1           0.000002608   -0.000001849    0.000001841
     12        6           0.000001938    0.000008514   -0.000022204
     13        6           0.000087303   -0.000091401    0.000104542
     14        1           0.000000137    0.000000868   -0.000005588
     15        1          -0.000005140    0.000000083    0.000022625
     16        1          -0.000011269    0.000007116    0.000009326
     17        6          -0.000004689    0.000004150   -0.000041107
     18        1          -0.000002090    0.000008644    0.000004295
     19        1          -0.000005093   -0.000014746   -0.000026252
     20        1           0.000006568   -0.000012843   -0.000000930
 -------------------------------------------------------------------
 Cartesian Forces:  Max     0.000794355 RMS     0.000162746
 -----------------------------------------------------------------------------------------------
                       Internal Coordinate Forces (Hartree/Bohr or radian)
  Cent   Atom   N1       Length/X         N2         Alpha/Y        N3         Beta/Z          J
 -----------------------------------------------------------------------------------------------
      1  H 
      2  C        1   0.000009(     1)
      3  H        2  -0.000007(     2)      1   0.000005(    20)
      4  C        2  -0.000208(     3)      1   0.000631(    21)      3   0.000333(    38)     0
      5  C        2  -0.000024(     4)      1   0.000260(    22)      3  -0.000293(    39)     0
      6  H        5   0.000004(     5)      2  -0.000009(    23)      1   0.000348(    40)     0
      7  C        4  -0.000027(     6)      2  -0.000499(    24)      1   0.000319(    41)     0
      8  C        5   0.000038(     7)      2   0.000015(    25)      6   0.000354(    42)     0
      9  H        4   0.000009(     8)      2  -0.000023(    26)      7   0.000010(    43)     0
     10  H        4   0.000029(     9)      2  -0.000009(    27)      7   0.000053(    44)     0
     11  H        8   0.000000(    10)      5   0.000007(    28)      2   0.000076(    45)     0
     12  C        8   0.000004(    11)      5   0.000010(    29)     11   0.000073(    46)     0
     13  C        7   0.000047(    12)      4  -0.000228(    30)      2  -0.000406(    47)     0
     14  H        7   0.000003(    13)      4  -0.000010(    31)     13   0.000002(    48)     0
     15  H       12  -0.000007(    14)      8   0.000042(    32)      5  -0.000014(    49)     0
     16  H       12   0.000002(    15)      8   0.000004(    33)     15  -0.000028(    50)     0
     17  C       13  -0.000049(    16)      7  -0.000168(    34)      4  -0.000099(    51)     0
     18  H       13  -0.000001(    17)      7   0.000008(    35)     17  -0.000017(    52)     0
     19  H       17  -0.000008(    18)     13  -0.000043(    36)      7  -0.000011(    53)     0
     20  H       17   0.000001(    19)     13   0.000007(    37)     19   0.000025(    54)     0
 -----------------------------------------------------------------------------------------------
 Internal  Forces:  Max     0.000631084 RMS     0.000171463

 GradGradGradGradGradGradGradGradGradGradGradGradGradGradGradGradGradGrad
 Berny optimization.
 Search for a saddle point.
 Step number   2 out of a maximum of   64
 All quantities printed in internal units (Hartrees-Bohrs-Radians)
 Swapping is turned off.
 Update second derivatives using D2CorN and points    1    2
 ITU=  0  0
     Eigenvalues ---   -0.19992   0.00655   0.01613   0.02366   0.03259
     Eigenvalues ---    0.04226   0.05677   0.06050   0.06913   0.08538
     Eigenvalues ---    0.10437   0.11363   0.11732   0.12395   0.14386
     Eigenvalues ---    0.14661   0.15233   0.16158   0.16897   0.17595
     Eigenvalues ---    0.19945   0.22010   0.22669   0.24066   0.26076
     Eigenvalues ---    0.27520   0.27960   0.29413   0.29647   0.31916
     Eigenvalues ---    0.33208   0.33308   0.33449   0.33530   0.34002
     Eigenvalues ---    0.34667   0.34895   0.35131   0.35612   0.35707
     Eigenvalues ---    0.36055   0.36783   0.36962   0.38323   0.41949
     Eigenvalues ---    0.45433   0.46807   0.49863   0.53061   0.54750
     Eigenvalues ---    0.75826   0.81459   1.84639   3.60350
 Eigenvectors required to have negative eigenvalues:
                          D8        D13       D19       A7        D6
   1                    0.41698  -0.37028   0.25672   0.25265   0.23776
                          R13       R8        D5        D14       R17
   1                   -0.23225  -0.22455   0.22180   0.21973   0.21803
 RFO step:  Lambda0=1.631564027D-08 Lambda=-7.87692275D-06.
 Linear search not attempted -- option 19 set.
 Variable       Old X    -DE/DX   Delta X   Delta X   Delta X     New X
                                 (Linear)    (Quad)   (Total)
    R2        2.06016   0.00001   0.00000   0.00009   0.00009   2.06025
    R3        2.06144  -0.00001   0.00000  -0.00020  -0.00020   2.06124
    R4        2.90814  -0.00021   0.00000  -0.00000  -0.00000   2.90813
    R5        2.88299  -0.00002   0.00000  -0.00044  -0.00044   2.88254
    R6        2.04960   0.00000   0.00000   0.00002   0.00002   2.04962
    R7        2.87786  -0.00003   0.00000   0.00059   0.00059   2.87845
    R8        2.63095   0.00004   0.00000   0.00012   0.00012   2.63107
    R9        2.06086   0.00001   0.00000  -0.00002  -0.00002   2.06083
   R10        2.05951   0.00003   0.00000   0.00030   0.00030   2.05981
   R11        2.05649   0.00000   0.00000   0.00001   0.00001   2.05650
   R12        2.60036   0.00000   0.00000   0.00009   0.00009   2.60046
   R13        2.63023   0.00005   0.00000   0.00042   0.00042   2.63065
   R14        2.04948   0.00000   0.00000   0.00004   0.00004   2.04952
   R15        2.04088  -0.00001   0.00000  -0.00019  -0.00019   2.04069
   R16        2.04464   0.00000   0.00000   0.00004   0.00004   2.04469
   R17        2.60313  -0.00005   0.00000  -0.00047  -0.00047   2.60265
   R18        2.05652  -0.00000   0.00000   0.00000   0.00000   2.05652
   R19        2.03919  -0.00001   0.00000   0.00010   0.00010   2.03929
   R20        2.04532   0.00000   0.00000  -0.00010  -0.00010   2.04521
    A3        1.86637   0.00000   0.00000  -0.00082  -0.00082   1.86555
    A4        1.95588   0.00063   0.00000   0.00184   0.00184   1.95772
    A5        1.91642   0.00026   0.00000   0.00285   0.00285   1.91927
    A6        2.02750  -0.00001   0.00000   0.00037   0.00037   2.02787
    A7        1.77944  -0.00050   0.00000   0.00078   0.00078   1.78022
    A8        2.17362   0.00002   0.00000  -0.00115  -0.00115   2.17247
    A9        1.97253  -0.00002   0.00000  -0.00140  -0.00140   1.97113
   A10        1.96326  -0.00001   0.00000   0.00119   0.00119   1.96445
   A11        2.02915   0.00001   0.00000   0.00010   0.00010   2.02925
   A12        2.18028   0.00001   0.00000  -0.00030  -0.00030   2.17998
   A13        2.16470  -0.00023   0.00000   0.00005   0.00005   2.16475
   A14        2.03082  -0.00001   0.00000   0.00000   0.00000   2.03082
   A15        2.11420   0.00004   0.00000   0.00073   0.00073   2.11493
   A16        2.10011   0.00000   0.00000  -0.00045  -0.00045   2.09966
   A17        2.17767  -0.00017   0.00000  -0.00022  -0.00022   2.17745
   A18        2.02977   0.00001   0.00000   0.00016   0.00016   2.02993
   A19        2.11981  -0.00004   0.00000  -0.00087  -0.00087   2.11895
   A20        2.09535   0.00001   0.00000   0.00072   0.00072   2.09607
    D4        2.17434   0.00033   0.00000  -0.00098  -0.00098   2.17336
    D5       -2.13537  -0.00029   0.00000   0.00066   0.00066  -2.13471
    D6       -0.27551   0.00035   0.00000  -0.01792  -0.01792  -0.29343
    D7        1.95847   0.00032   0.00000   0.02180   0.02180   1.98027
    D8        2.80505   0.00035   0.00000   0.00060   0.00060   2.80565
    D9       -2.08809   0.00001   0.00000   0.00225   0.00225  -2.08584
   D10        2.08780   0.00005   0.00000   0.00245   0.00245   2.09025
   D11       -3.05448   0.00008   0.00000  -0.00344  -0.00344  -3.05792
   D12       -2.88321   0.00007   0.00000   0.00046   0.00046  -2.88275
   D13        1.81746  -0.00041   0.00000  -0.01329  -0.01329   1.80417
   D14        2.82276   0.00000   0.00000  -0.00278  -0.00278   2.81998
   D15       -0.43493  -0.00001   0.00000  -0.00312  -0.00312  -0.43805
   D16       -2.77947  -0.00003   0.00000   0.00017   0.00017  -2.77930
   D17       -0.31254  -0.00010   0.00000  -0.00393  -0.00393  -0.31647
   D18       -2.87901  -0.00002   0.00000  -0.00019  -0.00019  -2.87920
   D19        0.46613  -0.00001   0.00000  -0.00327  -0.00327   0.46285
   D20        2.77468   0.00002   0.00000   0.00070   0.00070   2.77537
         Item               Value     Threshold  Converged?
 Maximum Force            0.000631     0.000450     NO 
 RMS     Force            0.000171     0.000300     YES
 Maximum Displacement     0.021798     0.001800     NO 
 RMS     Displacement     0.004437     0.001200     NO 
 Predicted change in Energy=-3.930299D-06
 GradGradGradGradGradGradGradGradGradGradGradGradGradGradGradGradGradGrad

 ---------------------------------------------------------------------------------------------------
                            Z-MATRIX (ANGSTROMS AND DEGREES)
   CD    Cent   Atom    N1       Length/X        N2       Alpha/Y        N3        Beta/Z          J
 ---------------------------------------------------------------------------------------------------
      1      1  H 
      2      2  C        1   1.090236(     1)
      3      3  H        2   1.090761(     2)      1  106.888(    20)
      4      4  C        2   1.538917(     3)      1  112.169(    21)      3  124.524(    38)      0
      5      5  C        2   1.525375(     4)      1  109.966(    22)      3 -122.310(    39)      0
      6      6  H        5   1.084614(     5)      2  116.189(    23)      1  -16.812(    40)      0
      7      7  C        4   1.523211(     6)      2  101.999(    24)      1  113.461(    41)      0
      8      8  C        5   1.392300(     7)      2  124.473(    25)      6  160.752(    42)      0
      9      9  H        4   1.090545(     8)      2  112.938(    26)      7 -119.510(    43)      0
     10     10  H        4   1.090004(     9)      2  112.555(    27)      7  119.763(    44)      0
     11     11  H        8   1.088254(    10)      5  116.268(    28)      2 -175.206(    45)      0
     12     12  C        8   1.376102(    11)      5  124.904(    29)     11 -165.169(    46)      0
     13     13  C        7   1.392080(    12)      4  124.031(    30)      2  103.371(    47)      0
     14     14  H        7   1.084559(    13)      4  116.357(    31)     13  161.573(    48)      0
     15     15  H       12   1.079886(    14)      8  121.177(    32)      5  -25.098(    49)      0
     16     16  H       12   1.082001(    15)      8  120.302(    33)     15 -159.242(    50)      0
     17     17  C       13   1.377265(    16)      7  124.759(    34)      4  -18.132(    51)      0
     18     18  H       13   1.088265(    17)      7  116.306(    35)     17 -164.966(    52)      0
     19     19  H       17   1.079147(    18)     13  121.407(    36)      7   26.520(    53)      0
     20     20  H       17   1.082281(    19)     13  120.096(    37)     19  159.017(    54)      0
 ---------------------------------------------------------------------------------------------------
                         Z-Matrix orientation:                         
 ---------------------------------------------------------------------
 Center     Atomic      Atomic             Coordinates (Angstroms)
 Number     Number       Type             X           Y           Z
 ---------------------------------------------------------------------
      1          1           0        0.000000    0.000000    0.000000
      2          6           0        0.000000    0.000000    1.090236
      3          1           0        1.043719    0.000000    1.407110
      4          6           0       -0.807717    1.174162    1.670928
      5          6           0       -0.766311   -1.211710    1.611096
      6          1           0       -1.414748   -1.710356    0.898868
      7          6           0       -1.973115    0.456739    2.339749
      8          6           0       -0.421836   -1.931082    2.752297
      9          1           0       -1.157187    1.868907    0.906409
     10          1           0       -0.233974    1.762767    2.386800
     11          1           0       -1.013521   -2.821090    2.957462
     12          6           0        0.383096   -1.462557    3.765325
     13          6           0       -2.080599    0.257793    3.713341
     14          1           0       -2.880974    0.362963    1.753859
     15          1           0        1.114263   -0.688420    3.585713
     16          1           0        0.546440   -2.059180    4.653067
     17          6           0       -1.033750    0.346559    4.603896
     18          1           0       -2.991949   -0.224871    4.060899
     19          1           0       -0.172242    0.963440    4.399397
     20          1           0       -1.183278    0.089763    5.644582
 ---------------------------------------------------------------------
                    Distance matrix (angstroms):
                    1          2          3          4          5
     1  H    0.000000
     2  C    1.090236   0.000000
     3  H    1.751944   1.090761   0.000000
     4  C    2.196147   1.538917   2.208183   0.000000
     5  C    2.156642   1.525375   2.187707   2.386981   0.000000
     6  H    2.394743   2.227881   3.037712   3.047132   1.084614
     7  C    3.094547   2.379722   3.190567   1.523211   2.184269
     8  C    3.388534   2.582532   2.772447   3.310711   1.392300
     9  H    2.377703   2.205830   2.930444   1.090545   3.184269
    10  H    2.976392   2.200720   2.387392   1.090004   3.119714
    11  H    4.210980   3.531615   3.820259   4.202328   2.112799
    12  C    4.057525   3.072773   2.852485   3.571669   2.454539
    13  C    4.264300   3.357980   3.891854   2.575153   2.882052
    14  H    3.392311   2.978615   3.956665   2.227851   2.640412
    15  H    3.817439   2.818317   2.285872   3.290839   2.776600
    16  H    5.117602   4.151215   3.876048   4.602325   3.419811
    17  C    4.731236   3.678933   3.828240   3.055866   3.384756
    18  H    5.049082   4.222223   4.835265   3.527057   3.453817
    19  H    4.506947   3.450859   3.370543   2.809408   3.585919
    20  H    5.767973   4.706408   4.787875   4.136049   4.258721
                    6          7          8          9         10
     6  H    0.000000
     7  C    2.661618   0.000000
     8  C    2.114189   2.877213   0.000000
     9  H    3.588527   2.171272   4.288119   0.000000
    10  H    3.958631   2.175440   3.716639   1.747898   0.000000
    11  H    2.373293   3.470814   1.088254   5.120892   4.684559
    12  C    3.392672   3.356738   1.376102   4.652368   3.561435
    13  C    3.498318   1.392080   2.909687   3.365598   2.726661
    14  H    2.679455   1.084559   3.508117   2.440796   3.060503
    15  H    3.828758   3.520756   2.144386   4.344892   3.043593
    16  H    4.249935   4.246110   2.137029   5.689434   4.511352
    17  C    4.254796   2.453754   2.998417   4.000524   2.749691
    18  H    3.833102   2.113048   3.350982   4.207264   3.789425
    19  H    4.576757   2.782452   3.339684   3.740448   2.166398
    20  H    5.080926   3.417666   3.609560   5.061257   3.783288
                   11         12         13         14         15
    11  H    0.000000
    12  C    2.109216   0.000000
    13  C    3.345075   3.005345   0.000000
    14  H    3.882555   4.246489   2.119253   0.000000
    15  H    3.077409   1.079886   3.334480   4.519184   0.000000
    16  H    2.426738   1.082001   3.626677   5.100917   1.827745
    17  C    3.570035   2.446130   1.377265   3.396354   2.592651
    18  H    3.445592   3.606960   1.088265   2.383338   4.159526
    19  H    4.136374   2.568250   2.147193   3.833624   2.246290
    20  H    3.965160   2.897384   2.136144   4.253768   3.181699
                   16         17         18         19         20
    16  H    0.000000
    17  C    2.878715   0.000000
    18  H    4.029336   2.110905   0.000000
    19  H    3.117224   1.079147   3.078540   0.000000
    20  H    2.931380   1.082281   2.424528   1.826470   0.000000
 Symmetry turned off by external request.
 Stoichiometry    C8H12
 Framework group  C1[X(C8H12)]
 Deg. of freedom    54
 Full point group                 C1      NOp   1
 Rotational constants (GHZ):           2.4971661           2.3000164           1.5795701
 Standard basis: def2TZVP (5D, 7F)
 The following finite field(s) will be applied:
 An electric field of             -0.0049 -0.0048  0.0031
   320 basis functions,   504 primitive gaussians,   360 cartesian basis functions
    30 alpha electrons       30 beta electrons
       nuclear repulsion energy       368.0364804322 Hartrees.
 NAtoms=   20 NActive=   20 NUniq=   20 SFac= 1.00D+00 NAtFMM=   60 NAOKFM=F Big=F
 Integral buffers will be    131072 words long.
 Raffenetti 2 integral format.
 Two-electron integral symmetry is turned off.
 One-electron integrals computed using PRISM.
   1 Symmetry operations used in ECPInt.
 ECPInt:  NShTT=    9316 NPrTT=   27240 LenC2=    9237 LenP2D=   22128.
 LDataN:  DoStor=T MaxTD1= 6 Len=  172
 NBasis=   320 RedAO= T EigKep=  2.68D-05  NBF=   320
 NBsUse=   320 1.00D-06 EigRej= -1.00D+00 NBFU=   320
 The nuclear repulsion energy is now       369.5731399675 hartrees.
 Initial guess from the checkpoint file:  "checkpoint.chk"
 B after Tr=    -0.050746   -0.003606   -0.016299
         Rot=    0.999949   -0.000935   -0.009841    0.001928 Ang=  -1.15 deg.
 ExpMin= 9.52D-02 ExpMax= 1.36D+04 ExpMxC= 4.63D+02 IAcc=2 IRadAn=         4 AccDes= 0.00D+00
 Harris functional with IExCor=  402 and IRadAn=       4 diagonalized for initial guess.
 HarFok:  IExCor=  402 AccDes= 0.00D+00 IRadAn=         4 IDoV= 1 UseB2=F ITyADJ=14
 ICtDFT=  3500011 ScaDFX=  1.000000  1.000000  1.000000  1.000000
 FoFCou: FMM=F IPFlag=           0 FMFlag=      100000 FMFlg1=           0
         NFxFlg=           0 DoJE=T BraDBF=F KetDBF=T FulRan=T
         wScrn=  0.000000 ICntrl=       500 IOpCl=  0 I1Cent=   200000004 NGrid=           0
         NMat0=    1 NMatS0=      1 NMatT0=    0 NMatD0=    1 NMtDS0=    0 NMtDT0=    0
 Symmetry not used in FoFCou.
 Requested convergence on RMS density matrix=1.00D-08 within 128 cycles.
 Requested convergence on MAX density matrix=1.00D-06.
 Requested convergence on             energy=1.00D-06.
 No special actions if energy rises.
 Integral accuracy reduced to 1.0D-05 until final iterations.
 Initial convergence to 1.0D-05 achieved.  Increase integral accuracy.
 SCF Done:  E(RB3LYP) =  -312.082692968     A.U. after    9 cycles
            NFock=  9  Conv=0.64D-08     -V/T= 2.0056
   1 Symmetry operations used in ECPInt.
 ECPInt:  NShTT=    9316 NPrTT=   27240 LenC2=    9237 LenP2D=   22128.
 LDataN:  DoStor=T MaxTD1= 7 Len=  274
 Calling FoFJK, ICntrl=      2127 FMM=F ISym2X=0 I1Cent= 0 IOpClX= 0 NMat=1 NMatS=1 NMatT=0.
 -------------------------------------------------------------------
 Center     Atomic                   Forces (Hartrees/Bohr)
 Number     Number              X              Y              Z
 -------------------------------------------------------------------
      1        1           0.000654547    0.000423531    0.000003533
      2        6          -0.000650755   -0.000136586   -0.000003721
      3        1           0.000003290   -0.000314463   -0.000002082
      4        6          -0.000000225    0.000041147    0.000001000
      5        6           0.000024827   -0.000034215    0.000012402
      6        1          -0.000010793    0.000007794    0.000007647
      7        6          -0.000004448    0.000007945    0.000033166
      8        6           0.000026234   -0.000025110   -0.000046263
      9        1           0.000000022    0.000000426    0.000005786
     10        1          -0.000012249   -0.000011364    0.000001706
     11        1          -0.000002941    0.000002736    0.000001029
     12        6          -0.000002507   -0.000001153    0.000013920
     13        6          -0.000033311    0.000035323   -0.000042633
     14        1          -0.000000515    0.000001032    0.000003556
     15        1           0.000003265   -0.000002871   -0.000010508
     16        1           0.000004629   -0.000003600   -0.000004625
     17        6          -0.000001352    0.000003702    0.000019105
     18        1           0.000001162   -0.000003688   -0.000002187
     19        1           0.000003516    0.000004503    0.000009327
     20        1          -0.000002394    0.000004913   -0.000000159
 -------------------------------------------------------------------
 Cartesian Forces:  Max     0.000654547 RMS     0.000139215
 -----------------------------------------------------------------------------------------------
                       Internal Coordinate Forces (Hartree/Bohr or radian)
  Cent   Atom   N1       Length/X         N2         Alpha/Y        N3         Beta/Z          J
 -----------------------------------------------------------------------------------------------
      1  H 
      2  C        1  -0.000004(     1)
      3  H        2   0.000003(     2)      1  -0.000006(    20)
      4  C        2   0.000101(     3)      1  -0.000287(    21)      3  -0.000175(    38)     0
      5  C        2   0.000014(     4)      1  -0.000131(    22)      3   0.000150(    39)     0
      6  H        5  -0.000002(     5)      2   0.000006(    23)      1  -0.000198(    40)     0
      7  C        4   0.000012(     6)      2   0.000237(    24)      1  -0.000096(    41)     0
      8  C        5  -0.000015(     7)      2   0.000006(    25)      6  -0.000171(    42)     0
      9  H        4  -0.000004(     8)      2   0.000009(    26)      7  -0.000002(    43)     0
     10  H        4  -0.000011(     9)      2   0.000006(    27)      7  -0.000023(    44)     0
     11  H        8  -0.000000(    10)      5  -0.000003(    28)      2  -0.000040(    45)     0
     12  C        8  -0.000000(    11)      5   0.000004(    29)     11  -0.000033(    46)     0
     13  C        7  -0.000020(    12)      4   0.000087(    30)      2   0.000172(    47)     0
     14  H        7  -0.000002(    13)      4   0.000005(    31)     13  -0.000004(    48)     0
     15  H       12   0.000002(    14)      8  -0.000019(    32)      5   0.000001(    49)     0
     16  H       12  -0.000001(    15)      8  -0.000003(    33)     15   0.000013(    50)     0
     17  C       13   0.000019(    16)      7   0.000069(    34)      4   0.000046(    51)     0
     18  H       13  -0.000000(    17)      7  -0.000004(    35)     17   0.000007(    52)     0
     19  H       17   0.000004(    18)     13   0.000017(    36)      7   0.000001(    53)     0
     20  H       17  -0.000001(    19)     13  -0.000003(    37)     19  -0.000009(    54)     0
 -----------------------------------------------------------------------------------------------
 Internal  Forces:  Max     0.000286745 RMS     0.000080149

 GradGradGradGradGradGradGradGradGradGradGradGradGradGradGradGradGradGrad
 Berny optimization.
 Search for a saddle point.
 Step number   3 out of a maximum of   64
 All quantities printed in internal units (Hartrees-Bohrs-Radians)
 Swapping is turned off.
 Update second derivatives using D2CorN and points    1    2    3
 ITU=  0  0  0
     Eigenvalues ---   -0.19993   0.00756   0.01617   0.02366   0.03263
     Eigenvalues ---    0.04228   0.05678   0.06050   0.06916   0.08540
     Eigenvalues ---    0.10439   0.11364   0.11732   0.12395   0.14387
     Eigenvalues ---    0.14662   0.15234   0.16158   0.16897   0.17594
     Eigenvalues ---    0.19946   0.22011   0.22670   0.24066   0.26076
     Eigenvalues ---    0.27520   0.27960   0.29413   0.29647   0.31916
     Eigenvalues ---    0.33208   0.33308   0.33449   0.33531   0.34002
     Eigenvalues ---    0.34667   0.34895   0.35131   0.35612   0.35707
     Eigenvalues ---    0.36056   0.36783   0.36962   0.38323   0.41949
     Eigenvalues ---    0.45433   0.46807   0.49863   0.53061   0.54750
     Eigenvalues ---    0.75826   0.81460   1.84639   3.60370
 Eigenvectors required to have negative eigenvalues:
                          D8        D13       D19       A7        D6
   1                    0.41692  -0.36952   0.25692   0.25259   0.23885
                          R13       R8        D5        D14       R17
   1                   -0.23226  -0.22454   0.22175   0.21987   0.21805
 RFO step:  Lambda0=3.037464905D-09 Lambda=-3.26667216D-07.
 Linear search not attempted -- option 19 set.
 Variable       Old X    -DE/DX   Delta X   Delta X   Delta X     New X
                                 (Linear)    (Quad)   (Total)
    R2        2.06025  -0.00000   0.00000  -0.00001  -0.00001   2.06024
    R3        2.06124   0.00000   0.00000   0.00004   0.00004   2.06128
    R4        2.90813   0.00010   0.00000   0.00006   0.00006   2.90819
    R5        2.88254   0.00001   0.00000   0.00004   0.00004   2.88258
    R6        2.04962  -0.00000   0.00000  -0.00001  -0.00001   2.04961
    R7        2.87845   0.00001   0.00000  -0.00009  -0.00009   2.87836
    R8        2.63107  -0.00002   0.00000  -0.00006  -0.00006   2.63101
    R9        2.06083  -0.00000   0.00000  -0.00001  -0.00001   2.06083
   R10        2.05981  -0.00001   0.00000  -0.00006  -0.00006   2.05975
   R11        2.05650  -0.00000   0.00000  -0.00000  -0.00000   2.05650
   R12        2.60046  -0.00000   0.00000   0.00000   0.00000   2.60046
   R13        2.63065  -0.00002   0.00000  -0.00012  -0.00012   2.63053
   R14        2.04952  -0.00000   0.00000  -0.00001  -0.00001   2.04951
   R15        2.04069   0.00000   0.00000   0.00003   0.00003   2.04072
   R16        2.04469  -0.00000   0.00000  -0.00001  -0.00001   2.04468
   R17        2.60265   0.00002   0.00000   0.00009   0.00009   2.60275
   R18        2.05652  -0.00000   0.00000   0.00000   0.00000   2.05652
   R19        2.03929   0.00000   0.00000  -0.00001  -0.00001   2.03928
   R20        2.04521  -0.00000   0.00000   0.00001   0.00001   2.04523
    A3        1.86555  -0.00001   0.00000   0.00003   0.00003   1.86558
    A4        1.95772  -0.00029   0.00000  -0.00017  -0.00017   1.95754
    A5        1.91927  -0.00013   0.00000  -0.00045  -0.00045   1.91882
    A6        2.02787   0.00001   0.00000  -0.00005  -0.00005   2.02782
    A7        1.78022   0.00024   0.00000  -0.00009  -0.00009   1.78013
    A8        2.17247   0.00001   0.00000   0.00021   0.00021   2.17268
    A9        1.97113   0.00001   0.00000   0.00026   0.00026   1.97139
   A10        1.96445   0.00001   0.00000  -0.00022  -0.00022   1.96423
   A11        2.02925  -0.00000   0.00000   0.00000   0.00000   2.02925
   A12        2.17998   0.00000   0.00000   0.00001   0.00001   2.17999
   A13        2.16475   0.00009   0.00000   0.00006   0.00006   2.16481
   A14        2.03082   0.00000   0.00000   0.00000   0.00000   2.03082
   A15        2.11493  -0.00002   0.00000  -0.00016  -0.00016   2.11478
   A16        2.09966  -0.00000   0.00000   0.00009   0.00009   2.09975
   A17        2.17745   0.00007   0.00000   0.00013   0.00013   2.17758
   A18        2.02993  -0.00000   0.00000  -0.00006  -0.00006   2.02987
   A19        2.11895   0.00002   0.00000   0.00020   0.00020   2.11915
   A20        2.09607  -0.00000   0.00000  -0.00013  -0.00013   2.09595
    D4        2.17336  -0.00017   0.00000  -0.00003  -0.00003   2.17333
    D5       -2.13471   0.00015   0.00000  -0.00005  -0.00005  -2.13477
    D6       -0.29343  -0.00020   0.00000   0.00200   0.00200  -0.29144
    D7        1.98027  -0.00010   0.00000  -0.00314  -0.00314   1.97713
    D8        2.80565  -0.00017   0.00000   0.00031   0.00031   2.80596
    D9       -2.08584  -0.00000   0.00000  -0.00039  -0.00039  -2.08623
   D10        2.09025  -0.00002   0.00000  -0.00048  -0.00048   2.08978
   D11       -3.05792  -0.00004   0.00000   0.00044   0.00044  -3.05748
   D12       -2.88275  -0.00003   0.00000  -0.00001  -0.00001  -2.88276
   D13        1.80417   0.00017   0.00000   0.00189   0.00189   1.80607
   D14        2.81998  -0.00000   0.00000   0.00056   0.00056   2.82054
   D15       -0.43805   0.00000   0.00000   0.00055   0.00055  -0.43750
   D16       -2.77930   0.00001   0.00000  -0.00005  -0.00005  -2.77935
   D17       -0.31647   0.00005   0.00000   0.00073   0.00073  -0.31574
   D18       -2.87920   0.00001   0.00000  -0.00005  -0.00005  -2.87925
   D19        0.46285   0.00000   0.00000   0.00030   0.00030   0.46316
   D20        2.77537  -0.00001   0.00000   0.00006   0.00006   2.77543
         Item               Value     Threshold  Converged?
 Maximum Force            0.000287     0.000450     YES
 RMS     Force            0.000080     0.000300     YES
 Maximum Displacement     0.003138     0.001800     NO 
 RMS     Displacement     0.000607     0.001200     YES
 Predicted change in Energy=-1.618149D-07
 GradGradGradGradGradGradGradGradGradGradGradGradGradGradGradGradGradGrad

 ---------------------------------------------------------------------------------------------------
                            Z-MATRIX (ANGSTROMS AND DEGREES)
   CD    Cent   Atom    N1       Length/X        N2       Alpha/Y        N3        Beta/Z          J
 ---------------------------------------------------------------------------------------------------
      1      1  H 
      2      2  C        1   1.090230(     1)
      3      3  H        2   1.090780(     2)      1  106.890(    20)
      4      4  C        2   1.538948(     3)      1  112.159(    21)      3  124.523(    38)      0
      5      5  C        2   1.525398(     4)      1  109.940(    22)      3 -122.313(    39)      0
      6      6  H        5   1.084607(     5)      2  116.186(    23)      1  -16.698(    40)      0
      7      7  C        4   1.523162(     6)      2  101.994(    24)      1  113.281(    41)      0
      8      8  C        5   1.392269(     7)      2  124.485(    25)      6  160.769(    42)      0
      9      9  H        4   1.090543(     8)      2  112.952(    26)      7 -119.532(    43)      0
     10     10  H        4   1.089971(     9)      2  112.542(    27)      7  119.735(    44)      0
     11     11  H        8   1.088253(    10)      5  116.268(    28)      2 -175.181(    45)      0
     12     12  C        8   1.376102(    11)      5  124.904(    29)     11 -165.170(    46)      0
     13     13  C        7   1.392019(    12)      4  124.034(    30)      2  103.480(    47)      0
     14     14  H        7   1.084556(    13)      4  116.357(    31)     13  161.605(    48)      0
     15     15  H       12   1.079903(    14)      8  121.168(    32)      5  -25.067(    49)      0
     16     16  H       12   1.081996(    15)      8  120.307(    33)     15 -159.245(    50)      0
     17     17  C       13   1.377315(    16)      7  124.766(    34)      4  -18.091(    51)      0
     18     18  H       13   1.088265(    17)      7  116.303(    35)     17 -164.969(    52)      0
     19     19  H       17   1.079143(    18)     13  121.418(    36)      7   26.537(    53)      0
     20     20  H       17   1.082287(    19)     13  120.089(    37)     19  159.020(    54)      0
 ---------------------------------------------------------------------------------------------------
                         Z-Matrix orientation:                         
 ---------------------------------------------------------------------
 Center     Atomic      Atomic             Coordinates (Angstroms)
 Number     Number       Type             X           Y           Z
 ---------------------------------------------------------------------
      1          1           0        0.000000    0.000000    0.000000
      2          6           0        0.000000    0.000000    1.090230
      3          1           0        1.043729    0.000000    1.407138
      4          6           0       -0.807752    1.174294    1.670686
      5          6           0       -0.766511   -1.211885    1.610454
      6          1           0       -1.413313   -1.711348    0.897323
      7          6           0       -1.975598    0.457194    2.335460
      8          6           0       -0.424109   -1.930276    2.752859
      9          1           0       -1.154263    1.870976    0.906587
     10          1           0       -0.235069    1.760681    2.389172
     11          1           0       -1.015417   -2.820749    2.957080
     12          6           0        0.377908   -1.460419    3.767581
     13          6           0       -2.087871    0.258115    3.708588
     14          1           0       -2.881316    0.363286    1.746294
     15          1           0        1.108376   -0.685300    3.589264
     16          1           0        0.540103   -2.056526    4.655872
     17          6           0       -1.044299    0.347200    4.603025
     18          1           0       -3.000299   -0.224899    4.052818
     19          1           0       -0.182323    0.964586    4.402071
     20          1           0       -1.197602    0.089896    5.643043
 ---------------------------------------------------------------------
                    Distance matrix (angstroms):
                    1          2          3          4          5
     1  H    0.000000
     2  C    1.090230   0.000000
     3  H    1.751972   1.090780   0.000000
     4  C    2.196047   1.538948   2.208259   0.000000
     5  C    2.156332   1.525398   2.187915   2.387296   0.000000
     6  H    2.394025   2.227864   3.037380   3.048233   1.084607
     7  C    3.092958   2.379624   3.191730   1.523162   2.184800
     8  C    3.388815   2.582667   2.773351   3.310081   1.392269
     9  H    2.377977   2.206037   2.929552   1.090543   3.185877
    10  H    2.977146   2.200569   2.387407   1.089971   3.118491
    11  H    4.210940   3.531689   3.820867   4.202178   2.112770
    12  C    4.058362   3.073084   2.854441   3.569939   2.454518
    13  C    4.263737   3.358813   3.894896   2.575098   2.882544
    14  H    3.388731   2.977310   3.956385   2.227805   2.640458
    15  H    3.818501   2.818387   2.288119   3.287944   2.776361
    16  H    5.118414   4.151484   3.877785   4.600680   3.419829
    17  C    4.732752   3.681146   3.833289   3.055920   3.385764
    18  H    5.047545   4.222476   4.837806   3.526975   3.453852
    19  H    4.510199   3.454267   3.376871   2.809912   3.587677
    20  H    5.769425   4.708550   4.793177   4.136124   4.259372
                    6          7          8          9         10
     6  H    0.000000
     7  C    2.662137   0.000000
     8  C    2.114112   2.877733   0.000000
     9  H    3.591690   2.171417   4.288515   0.000000
    10  H    3.958391   2.175180   3.713646   1.747896   0.000000
    11  H    2.373118   3.471781   1.088253   5.122117   4.681983
    12  C    3.392612   3.356664   1.376102   4.650916   3.556858
    13  C    3.498145   1.392019   2.910426   3.365138   2.726067
    14  H    2.679531   1.084556   3.508769   2.441505   3.060822
    15  H    3.828608   3.519689   2.144306   4.341755   3.037744
    16  H    4.249904   4.246393   2.137079   5.687996   4.506651
    17  C    4.255117   2.453826   2.999108   3.999705   2.748441
    18  H    3.832128   2.112955   3.351859   4.207055   3.789030
    19  H    4.578124   2.782833   3.340447   3.739602   2.165252
    20  H    5.080637   3.417644   3.610063   5.060449   3.782284
                   11         12         13         14         15
    11  H    0.000000
    12  C    2.109209   0.000000
    13  C    3.345792   3.006145   0.000000
    14  H    3.884025   4.246650   2.119248   0.000000
    15  H    3.077385   1.079903   3.334706   4.518153   0.000000
    16  H    2.426845   1.081996   3.627832   5.101690   1.827799
    17  C    3.570136   2.447065   1.377315   3.396439   2.593796
    18  H    3.446568   3.608345   1.088265   2.383311   4.160296
    19  H    4.136521   2.568479   2.147355   3.833964   2.246927
    20  H    3.964775   2.898804   2.136117   4.253739   3.183783
                   16         17         18         19         20
    16  H    0.000000
    17  C    2.879414   0.000000
    18  H    4.031499   2.110915   0.000000
[...]
 00749252,-0.01213382,0.01627996,0.00070364,0.00013041,0.00057986,-0.00
 600944,-0.00269138,0.00477957,-0.06895195,-0.02300765,-0.05671706,-0.0
 0602407,0.01208717,-0.01438935,-0.01831699,0.03156579,0.02065649,0.405
 45989,-0.00075996,-0.00281185,0.00037851,0.00756051,-0.01107660,0.0172
 1045,0.00051340,0.00128421,0.00005058,0.00005283,-0.00070292,0.0003022
 9,0.00434658,-0.15319446,0.13358675,-0.00618394,0.00977458,-0.01409767
 ,0.00558801,-0.01396472,-0.00651560,0.20123275,0.52724944,-0.00086920,
 -0.00021478,0.00059975,-0.00288903,0.00444437,-0.00186875,-0.00263481,
 -0.00084528,0.00099013,-0.00796793,-0.00361189,0.00377265,-0.03278352,
 0.07770060,-0.26502645,-0.01022934,0.01750512,-0.01280126,-0.01799614,
 0.04195593,0.03621030,0.17780028,-0.10522010,0.57208795,0.00167722,-0.
 00079877,-0.00009105,-0.00669651,0.00909684,-0.01199269,-0.00099222,0.
 00227430,0.00082707,-0.07620280,0.05291974,-0.06242040,-0.00076759,-0.
 00079351,0.00010406,0.00021116,0.00012471,-0.00013007,0.00844778,-0.01
 585806,0.02361299,0.00009462,0.00048387,-0.00074186,0.08116749,-0.0004
 6803,0.00186064,0.00029768,0.00775219,-0.01336955,0.01430468,0.0006012
 0,-0.00211497,-0.00040051,0.05264046,-0.14953468,0.11638817,0.00198628
 ,-0.00361686,-0.00080998,-0.00006166,-0.00055463,0.00000829,0.00240191
 ,-0.00740837,0.01120322,-0.00126061,-0.00019911,-0.00100509,-0.0576640
 0,0.16211178,0.00000509,0.00037057,0.00174412,0.00515836,-0.01017305,0
 .00987931,0.00112841,-0.00115426,0.00011674,-0.06188779,0.11784579,-0.
 18049374,0.00138241,-0.00113585,-0.00041269,-0.00018694,-0.00009546,0.
 00010581,-0.00453227,0.00705873,-0.01114556,-0.00042799,-0.00039810,0.
 00026771,0.06372530,-0.12659543,0.19424350,-0.00089844,0.00261069,0.00
 155170,0.00928009,0.01079704,0.01421668,0.00166099,-0.00066492,0.00000
 283,-0.12028118,-0.07400437,-0.09309856,-0.00087221,0.00024742,0.00098
 464,0.00026322,0.00015074,-0.00012432,-0.01729581,-0.01170887,-0.01716
 095,0.00019463,0.00032716,0.00003244,-0.00531945,-0.00517573,-0.007022
 28,0.13287422,0.00078455,-0.00252841,-0.00055946,-0.01040914,-0.011376
 95,-0.01553597,-0.00056568,0.00198388,0.00034935,-0.07375442,-0.119783
 02,-0.09044280,0.00197936,-0.00262851,0.00020134,-0.00022829,-0.000061
 69,0.00016768,-0.00849595,-0.00599452,-0.00734733,-0.00084453,-0.00024
 269,-0.00121824,0.01127533,0.01225228,0.01344108,0.07916237,0.12855143
 ,0.00117240,-0.00214000,-0.00005032,-0.00533792,-0.00446891,-0.0090812
 4,-0.00004172,0.00049306,0.00160671,-0.09365128,-0.09117675,-0.1655140
 9,-0.00007952,0.00022557,-0.00044523,-0.00007625,-0.00017620,0.0000412
 8,0.00837480,0.00700322,0.01282576,-0.00008457,-0.00018211,-0.00001911
 ,-0.01274107,-0.01207504,-0.01526236,0.10014146,0.09973057,0.17867814,
 0.00045807,0.00048324,-0.00013894,0.00323601,-0.00171368,-0.00294623,0
 .00013745,0.00041743,-0.00036741,-0.00012297,-0.00126889,0.00023899,0.
 00557641,0.00718433,-0.00397547,-0.00155219,0.00194810,0.00155776,-0.0
 0008524,-0.00051952,0.00019530,-0.12375069,-0.12469562,0.02164963,0.00
 004699,-0.00024359,-0.00008321,0.00001066,-0.00009334,0.00001486,0.124
 89941,-0.00054139,-0.00115365,0.00027415,-0.00013534,0.00306134,0.0037
 8507,-0.00000823,-0.00002647,-0.00007090,-0.00000457,0.00091704,-0.000
 12247,-0.01161765,-0.01441742,0.00469163,0.00260993,-0.00014132,-0.000
 88504,0.00019409,0.00059733,0.00011019,-0.11995231,-0.22274789,0.04220
 082,0.00004039,0.00011424,0.00003244,0.00000525,0.00005955,-0.00002462
 ,0.13794323,0.23856581,0.00013614,0.00061035,-0.00032173,-0.00500855,0
 .00195082,-0.00112764,-0.00003820,-0.00050567,0.00034905,0.00012941,0.
 00086502,-0.00024077,0.01707778,0.02291246,-0.00491513,0.00189717,-0.0
 0149963,-0.00011876,-0.00003255,0.00105809,0.00062806,0.02108360,0.045
 46140,-0.06271989,-0.00017288,0.00020223,0.00016642,-0.00013324,0.0001
 7139,0.00007034,-0.01706833,-0.05082837,0.06379679,-0.00030902,-0.0003
 0205,-0.00016620,-0.00125642,0.00211776,-0.00019291,-0.00010428,-0.000
 00904,0.00095890,0.00188821,0.00045109,-0.00124755,-0.00641909,0.00826
 692,-0.01533817,0.00411676,-0.00158169,-0.00173897,-0.00039648,-0.0040
 0121,0.00384266,-0.18851420,-0.09530723,-0.14484242,0.00009363,0.00021
 240,-0.00003022,0.00030262,-0.00004029,-0.00002262,-0.00935203,-0.0083
 1196,-0.01620545,0.43050778,0.00045806,0.00010241,-0.00025717,0.003132
 46,0.00267252,-0.00123751,0.00074911,0.00041997,-0.00020239,0.00453281
 ,0.00170726,-0.00256589,-0.01373421,0.04148772,-0.00307196,0.00249988,
 -0.00144225,0.00367068,0.01300383,-0.02039473,-0.02734194,-0.07048890,
 -0.12844480,-0.01938968,0.00025177,0.00061567,-0.00002576,-0.00006207,
 0.00038097,-0.00016859,-0.01720830,-0.00781268,-0.01967438,0.23818512,
 0.43217194,0.00000858,-0.00012040,-0.00003357,0.00400609,0.00097905,-0
 .00147886,0.00068185,0.00038009,-0.00114709,0.00426049,0.00124775,-0.0
 0150246,-0.05109860,0.02903282,-0.04214077,-0.00021458,0.00212120,-0.0
 0337358,0.00868222,-0.02504364,-0.02937318,-0.13310044,-0.06850945,-0.
 21574705,0.00056282,0.00044065,-0.00003448,0.00011285,0.00091145,-0.00
 031656,0.00404620,0.00346457,0.00665415,0.19706526,-0.14717181,0.56318
 264,-0.00059184,0.00040466,0.00038737,-0.00381189,-0.00562270,0.001776
 50,-0.00088028,0.00080038,0.00070810,-0.00132579,-0.00171931,0.0262785
 3,0.01381706,-0.01577548,0.00099937,-0.00089155,0.00073212,0.00053173,
 -0.10835981,-0.01308603,0.04503427,-0.01219332,0.00692293,-0.01882148,
 -0.00354462,-0.00159676,0.00178518,0.00083424,-0.00046578,-0.00039454,
 -0.00027547,-0.00002513,-0.00017935,-0.00862106,0.02164401,0.01852625,
 0.62015751,-0.00049802,0.00054954,0.00011345,-0.00012026,-0.00176099,0
 .00120870,0.00003593,0.00026540,0.00025973,-0.00256905,0.00136167,0.01
 715968,0.00330965,-0.00686834,-0.00613079,0.00111220,-0.00041403,-0.00
 054931,-0.02376247,-0.06593665,0.05676868,0.01244354,-0.00527106,-0.00
 356609,-0.00205980,-0.00178354,0.00117619,0.00097848,0.00136175,0.0004
 6759,-0.00074336,0.00044822,0.00032347,0.00595321,-0.00927700,-0.00504
 308,0.16519690,0.23449537,-0.00079893,-0.00057509,0.00046306,-0.004948
 77,-0.00884554,0.00199616,-0.00127395,0.00008305,0.00090324,0.00205354
 ,-0.00077147,-0.00417963,0.05040913,-0.04844627,-0.00434227,-0.0035990
 5,0.00206668,0.00196478,-0.01002823,0.08827069,-0.31162201,-0.02255442
 ,0.00099054,-0.04650052,-0.00070071,-0.00214177,0.00023100,-0.00157868
 ,-0.00151818,0.00002470,0.00012018,0.00007912,-0.00055091,-0.00935335,
 0.03691926,0.03102237,0.04920751,-0.08503449,0.64704804,-0.00035064,0.
 00020122,0.00026057,-0.00013085,-0.00080363,0.00046629,-0.00006322,0.0
 0026737,0.00005890,-0.01404077,-0.00262318,-0.01238367,-0.00272395,0.0
 0119202,-0.00140911,0.00069597,0.00044480,0.00007691,-0.24560127,-0.02
 900820,-0.13227659,0.00046559,-0.00009923,0.00113125,0.00161984,-0.000
 21027,0.00015530,-0.00241429,-0.00021853,0.00257206,-0.00000353,0.0001
 0136,-0.00001556,-0.00015906,-0.00045776,-0.00071182,0.00522757,-0.000
 97069,0.00634049,0.25603978,0.00006832,0.00026865,-0.00002591,-0.00090
 983,-0.00081380,-0.00040064,-0.00013809,0.00030728,0.00020831,-0.01327
 774,-0.00060829,-0.00850330,0.00865014,-0.00557513,0.00472266,-0.00090
 708,0.00070225,0.00048788,-0.02590068,-0.03348724,-0.00105551,-0.00105
 073,0.00078768,-0.00458924,0.00038586,0.00130194,-0.00056167,-0.003161
 63,-0.00154800,0.00097242,-0.00001648,-0.00013164,-0.00008395,0.000119
 75,0.00208422,0.00336703,-0.00073277,0.00253286,-0.00413489,0.03131453
 ,0.03402973,0.00020012,-0.00010374,-0.00010189,-0.00017559,0.00041744,
 -0.00043180,-0.00000060,-0.00006175,-0.00003417,0.01169903,0.00222879,
 0.00813629,0.00220380,-0.00150570,0.00095769,-0.00001836,-0.00008676,0
 .00063731,-0.12363787,-0.00759878,-0.13252400,-0.00023578,0.00015570,-
 0.00092000,-0.00053656,-0.00010799,0.00127553,0.00215557,0.00054945,-0
 .00088717,0.00004389,-0.00002812,-0.00006132,0.00027214,0.00028711,0.0
 0070106,-0.03020490,-0.00202274,-0.01656670,0.13543096,0.00710443,0.14
 443356,0.00038607,0.00001022,0.00005672,-0.00026122,0.00100104,0.00026
 444,0.00067046,-0.00006388,-0.00000031,0.00016439,0.00033463,-0.000627
 58,-0.00362688,0.00357153,0.00097865,0.00038568,0.00005970,-0.00003688
 ,0.00051933,-0.00192982,-0.00309717,-0.00537401,-0.01283188,0.00983839
 ,0.00015364,0.00018631,0.00010728,0.00004385,0.00040031,-0.00001580,0.
 00248885,-0.00289685,-0.00386201,-0.17503763,-0.15639082,0.01962691,0.
 00213567,-0.00023924,0.00332293,0.00001044,0.00035407,0.00008832,0.178
 70685,0.00020899,0.00002334,0.00016156,0.00063150,-0.00015462,0.000820
 99,-0.00001954,0.00027288,-0.00003718,-0.00029957,0.00007264,0.0006225
 4,0.00503343,-0.00474501,0.00097291,-0.00033201,0.00010490,-0.00010702
 ,-0.00089906,0.00154736,0.00308246,-0.01086992,-0.00602134,-0.00378281
 ,-0.00009906,-0.00013344,0.00001814,-0.00014509,-0.00031712,-0.0001316
 2,-0.00446911,0.00295459,0.00010232,-0.14765729,-0.18973836,0.04659940
 ,-0.00184528,0.00054544,-0.00370138,0.00002517,-0.00035137,-0.00005363
 ,0.16118879,0.20805639,0.00021368,-0.00009232,0.00016000,-0.00119622,-
 0.00013512,-0.00041130,0.00043297,0.00064664,-0.00113473,-0.00009237,0
 .00002980,0.00036536,0.00257544,-0.00189983,0.00021348,0.00050940,-0.0
 0009004,-0.00008302,-0.00038343,0.00062515,0.00138411,-0.01722183,-0.0
 1822706,0.00696416,0.00004496,-0.00008140,-0.00003758,-0.00004652,0.00
 003944,0.00003409,-0.00508687,-0.00042128,-0.00189729,0.02751588,0.047
 85835,-0.05840624,-0.00113537,0.00022380,-0.00143079,0.00005496,-0.000
 12783,-0.00005230,-0.02678164,-0.04305365,0.05723739,0.00034479,0.0000
 3103,0.00010371,0.00000453,-0.00004528,0.00022515,0.00036757,0.0001088
 0,-0.00034059,-0.00005310,-0.00000291,0.00015085,-0.00004033,-0.002343
 16,-0.00457347,0.00001744,0.00039301,-0.00117179,0.00017130,-0.0015760
 0,-0.00135370,0.00099067,0.01128529,-0.01157366,0.00010420,0.00003844,
 0.00002503,-0.00001226,0.00017977,-0.00007280,-0.00200216,0.00245016,0
 .00188588,-0.04877650,0.00943083,-0.04400244,0.00087360,0.00042341,0.0
 0140262,-0.00002467,0.00012897,0.00002350,0.00564983,-0.01051342,0.016
 15548,0.04456570,0.00015382,0.00006107,0.00001288,-0.00066426,-0.00003
 361,0.00001526,0.00040465,0.00004149,0.00017749,0.00002311,0.00008812,
 -0.00016834,-0.00331987,0.00034510,0.00043746,-0.00013320,0.00002671,-
 0.00033848,0.00011644,0.00027278,0.00028457,-0.00456644,0.00987423,-0.
 01350874,0.00001162,0.00000099,0.00000922,-0.00000405,0.00006916,0.000
 07598,0.00281938,-0.00054631,-0.00101848,0.01207506,-0.13542811,0.1425
 3366,-0.00014195,-0.00011447,-0.00016656,0.00007102,-0.00002060,-0.000
 02625,0.00477524,-0.00852641,0.01626329,-0.01236428,0.13558287,-0.0000
 7648,0.00004427,-0.00006041,-0.00041074,-0.00035960,0.00020684,-0.0000
 2642,-0.00007571,0.00035201,0.00001226,-0.00005424,-0.00012990,-0.0032
 1609,-0.00298794,-0.00001990,-0.00044209,0.00065543,-0.00073467,0.0000
 2454,0.00065843,0.00099510,-0.00263514,0.01628655,-0.01700229,-0.00005
 826,0.00000996,-0.00001266,0.00000043,-0.00005107,0.00006120,0.0017998
 5,-0.00178720,0.00013836,-0.03922001,0.13422559,-0.23692771,-0.0006283
 4,-0.00019466,-0.00091708,0.00004567,-0.00010025,-0.00001922,-0.001635
 70,0.00131825,-0.00200568,0.04511926,-0.14576655,0.25414191,0.00058242
 ,0.00025440,-0.00026157,0.00328455,0.00632143,-0.00087157,0.00076715,0
 .00004245,-0.00083450,0.00373896,0.00313462,-0.00246303,-0.03184314,0.
 03355404,-0.00656190,0.00255370,-0.00137263,-0.00138936,0.02240143,-0.
 02316061,-0.05497051,0.01767528,0.00164246,0.04408977,0.00013553,0.000
 68739,-0.00004461,0.00061500,0.00050121,0.00022140,0.00013259,-0.00020
 587,0.00062515,0.00420236,-0.04100516,-0.03292728,-0.25503072,-0.04984
 871,-0.09864635,0.00071123,0.00278008,0.00317012,-0.00768857,0.0078034
 7,0.00395471,-0.00231943,0.00020882,0.00152179,0.54489439,-0.00006683,
 -0.00014323,0.00002609,-0.00060511,-0.00089004,0.00016146,-0.00030984,
 0.00006819,0.00024486,-0.00060046,-0.00336832,-0.00117610,0.01609466,-
 0.01781572,0.00828732,-0.00147425,0.00061866,0.00093276,0.00036925,0.0
 1613690,0.02201932,-0.01043219,-0.00471007,-0.03355344,-0.00047359,-0.
 00029559,-0.00015208,0.00017769,-0.00112432,0.00135496,-0.00044621,0.0
 0056198,0.00001487,-0.01073991,0.02202791,0.02334784,-0.05452773,-0.06
 115713,-0.02428676,-0.00087647,0.00328644,0.00226964,0.00189067,-0.003
 91931,-0.00108235,0.00251842,-0.00183436,-0.00202279,0.23819231,0.2280
 0495,0.00016111,0.00024789,0.00003439,0.00087166,0.00148521,0.00018826
 ,0.00046956,0.00026797,-0.00029337,0.00045084,0.00157549,-0.00053097,-
 0.01189647,0.00597509,-0.00004274,0.00139893,-0.00081320,-0.00058923,-
 0.02054904,-0.01139329,-0.04639279,0.00343430,-0.00109898,0.00001265,-
 0.00045031,-0.00021382,-0.00011404,-0.00019492,0.00018665,-0.00084988,
 0.00000528,-0.00026594,0.00007634,-0.00178794,0.00130221,-0.00892197,-
 0.15400924,-0.00628941,-0.21448998,0.00002300,0.00260296,-0.00452612,0
 .00161629,-0.00167500,-0.00130130,-0.00233586,0.00149953,0.00157628,0.
 08845780,-0.09807340,0.64911381,0.00006239,-0.00002445,-0.00000701,0.0
 0054112,-0.00007662,-0.00034014,0.00004204,-0.00006524,-0.00006086,0.0
 0271265,-0.00212023,-0.00012277,0.00092579,-0.00029087,0.00000355,-0.0
 0013144,0.00013085,0.00010137,-0.00235048,-0.00201183,0.00128479,0.000
 03268,-0.00015963,-0.00037544,-0.00065068,-0.00014898,0.00029862,0.000
 01848,0.00010046,-0.00008987,-0.00003356,0.00041257,0.00008260,0.00015
 926,0.00021522,-0.00020889,-0.23493152,-0.10005642,0.06595874,0.000761
 58,0.00210450,0.00075217,0.00013076,-0.00011406,-0.00007321,-0.0000789
 8,0.00007220,0.00000993,-0.01999309,-0.01445374,0.00819128,0.25336650,
 -0.00021053,0.00019908,0.00011779,-0.00150451,-0.00001904,0.00087706,-
 0.00015490,0.00018911,0.00019664,-0.00129976,0.00650261,0.00150950,-0.
 00131142,0.00040176,0.00037165,0.00009108,-0.00006618,0.00001705,-0.00
 461323,-0.00129702,-0.00097805,-0.00049321,-0.00018800,0.00091721,0.00
 057360,0.00028504,-0.00004539,0.00032755,0.00024257,-0.00053637,0.0004
 5076,-0.00023480,-0.00023404,-0.00035238,-0.00035190,-0.00000546,-0.10
 463682,-0.09332253,0.04287037,0.00161687,-0.00334500,-0.00106069,0.000
 06482,0.00028399,0.00001676,-0.00001008,-0.00000260,-0.00003678,-0.002
 86297,0.00223490,0.00161762,0.11543652,0.08635785,-0.00002035,-0.00013
 584,0.00000185,-0.00014553,0.00019241,0.00009247,0.00003115,-0.0001662
 6,-0.00000709,-0.00272073,0.00013114,-0.00379042,0.00030331,-0.0004073
 8,0.00020948,-0.00002804,-0.00007956,-0.00003494,0.02913995,0.01784233
 ,-0.01070515,-0.00043791,-0.00000209,-0.00022056,0.00108626,0.00042498
 ,-0.00066891,-0.00013736,-0.00003829,0.00026709,0.00011640,-0.00021700
 ,0.00002266,-0.00010477,0.00044890,0.00055858,0.06659890,0.03886043,-0
 .08070053,-0.00013996,-0.00079332,0.00077618,0.00012553,-0.00003879,-0
 .00012316,0.00002072,-0.00001373,-0.00002539,-0.01883785,-0.01072392,0
 .00766110,-0.07169296,-0.04549852,0.08726314,-0.00003947,0.00001428,0.
 00003633,-0.00003153,-0.00030522,0.00000169,-0.00019938,-0.00004110,0.
 00000646,0.00038378,-0.00041433,0.00068009,0.00157804,-0.00207268,0.00
 111479,-0.00017336,0.00008095,0.00010394,-0.00145019,0.00343754,0.0046
 7393,-0.00128473,0.00011086,-0.00294977,0.00024820,0.00014861,0.000349
 69,0.00061642,0.00041757,-0.00024711,0.00017942,-0.00010143,-0.0002224
 2,-0.00137916,0.00610563,0.00330796,-0.01923754,-0.01376405,0.00188188
 ,0.00004323,-0.00001059,-0.00020056,0.00064870,0.00208367,0.00036268,-
 0.00008229,0.00022640,-0.00004256,-0.22792573,-0.14217720,0.04200501,-
 0.00114916,-0.00325596,-0.00408218,0.24990496,0.00019512,-0.00004011,-
 0.00002770,0.00024986,0.00056294,-0.00057796,0.00023915,0.00006114,-0.
 00017411,0.00109346,-0.00042262,0.00002082,-0.00327937,0.00310362,-0.0
 0175178,0.00036549,-0.00012876,-0.00011786,0.00236495,-0.00535665,-0.0
 0393247,0.00243963,0.00043761,0.00463973,0.00012939,0.00029222,0.00012
 558,-0.00000909,0.00022954,0.00105868,0.00017705,0.00004167,0.00019377
 ,0.00011369,-0.01014706,-0.00393409,0.00378253,0.00226341,0.00714667,0
 .00012302,0.00006134,0.00002530,0.00005480,0.00034702,-0.00025967,0.00
 029211,-0.00024093,-0.00019473,-0.15392725,-0.12764566,0.03608520,-0.0
 0109636,0.00585914,0.00158666,0.15071386,0.13216071,0.00002714,0.00014
 706,0.00004236,0.00043112,0.00010619,0.00017385,0.00025992,-0.00001960
 ,-0.00014517,-0.00077813,-0.00079036,-0.00156462,-0.00152162,0.0014181
 6,-0.00075770,0.00018212,-0.00000169,-0.00008458,0.00135932,-0.0019961
 9,-0.00193862,0.00109718,-0.00013195,0.00209415,0.00006849,0.00016058,
 0.00017667,0.00036217,0.00105090,-0.00120548,-0.00006244,0.00006758,0.
 00006403,0.00046965,-0.00402374,-0.00229583,-0.01357419,-0.01268413,0.
 01259770,0.00013498,0.00078865,0.00033623,-0.00001527,-0.00087981,0.00
 052606,0.00015969,0.00000532,0.00004644,0.03936172,0.03954764,-0.06691
 797,-0.00379748,0.00128597,-0.00139643,-0.04615331,-0.04016065,0.06318
 353,-0.00000751,0.00002359,0.00001310,0.00013571,0.00006539,-0.0000185
 4,0.00007072,-0.00002876,-0.00003750,-0.00041547,-0.00074534,-0.000060
 09,-0.00012651,0.00024035,0.00012328,0.00001037,0.00007226,0.00000988,
 -0.00315625,-0.00266581,-0.00198630,0.00010662,-0.00002914,0.00013284,
 0.00017354,0.00017444,0.00009467,0.00037921,0.00031501,0.00035810,0.00
 001198,0.00004375,0.00002081,-0.00094569,-0.00086151,0.00137655,0.0066
 4976,0.00517875,-0.02721459,-0.00006300,0.00019942,-0.00102940,-0.0001
 0623,0.00028838,0.00019730,0.00030008,0.00023630,-0.00014189,-0.056893
 94,-0.02205946,0.04413870,0.00056567,0.00214458,0.00092541,-0.00065020
 ,-0.00402204,0.02198891,0.05396116,0.00005020,0.00010200,0.00003416,-0
 .00001758,-0.00016728,0.00006309,0.00004125,0.00003500,-0.00010677,0.0
 0014466,0.00009825,0.00011025,-0.00169574,0.00093803,-0.00026016,0.000
 11442,-0.00008563,-0.00007308,-0.00128586,0.00395481,-0.00170895,0.001
 23743,0.00016776,0.00114160,0.00017936,0.00017593,0.00025932,0.0001514
 2,0.00047410,-0.00030183,-0.00000542,-0.00010959,-0.00002169,0.0008080
 5,-0.00063371,-0.00459759,0.00069222,0.00208209,0.00119604,-0.00008941
 ,0.00051868,-0.00038172,0.00046037,-0.00030156,-0.00023269,-0.00042510
 ,0.00038488,0.00043302,-0.02273944,-0.05003619,0.06697722,0.00214613,-
 0.00372897,-0.00137216,-0.00119680,-0.00143858,0.01611007,0.02142984,0
 .04756997,0.00001327,-0.00001257,-0.00001429,-0.00011610,-0.00001424,0
 .00003357,0.00000655,-0.00000180,-0.00000259,-0.00023183,-0.00007643,0
 .00035789,-0.00012785,-0.00003460,0.00022599,-0.00000769,-0.00001459,0
 .00000496,-0.00402522,0.00095501,-0.00042407,0.00001002,-0.00003967,-0
 .00017358,0.00000391,-0.00000941,-0.00002478,-0.00006395,-0.00008795,0
 .00002215,-0.00005943,-0.00005463,-0.00001275,0.00012612,0.00041871,-0
 .00041945,0.00711369,0.00495297,-0.01495064,0.00018538,0.00012217,-0.0
 0112917,0.00004688,-0.00023768,-0.00000128,0.00015242,-0.00030752,0.00
 033676,0.03640605,0.07286407,-0.31369247,0.00008557,-0.00140233,0.0008
 2002,-0.00062655,0.00024862,-0.00293463,-0.03889124,-0.07726815,0.3319
 7836\\-0.00065895,-0.00044013,0.00000007,0.00065532,0.00011449,0.00000
 025,0.00000011,0.00032447,-0.00000022,0.00000134,0.00000290,-0.0000009
 7,0.00000526,-0.00000436,0.00000026,-0.00000222,0.00000164,0.00000092,
 0.00000024,0.00000070,0.00000225,0.00000228,-0.00000151,-0.00000262,-0
 .00000019,-0.00000012,0.00000014,-0.00000051,-0.00000036,-0.00000012,-
 0.00000045,0.00000042,0.00000036,-0.00000094,0.00000071,0.00000080,-0.
 00000198,0.00000056,-0.00000297,-0.00000010,0.00000032,0.00000024,0.00
 000032,-0.00000027,-0.00000029,0.00000024,-0.00000024,-0.00000023,-0.0
 0000001,0.00000051,0.00000187,0.00000007,-0.00000006,-0.00000008,0.000
 00013,0.00000027,0.00000039,0.00000002,0.00000007,-0.00000005\\\@


 I KNOW YOU BELIEVE YOU UNDERSTAND WHAT YOU THINK I SAID,
 BUT I AM NOT SURE YOU REALIZE THAT WHAT YOU HEARD IS NOT WHAT I MEANT.
 Job cpu time:       0 days  2 hours  1 minutes 38.3 seconds.
 Elapsed time:       0 days  0 hours 10 minutes 35.9 seconds.
 File lengths (MBytes):  RWF=    162 Int=      0 D2E=      0 Chk=     32 Scr=      1
 Normal termination of Gaussian 16 at Fri Jun 10 23:58:30 2022.
