 Entering Gaussian System, Link 0=g16
 Input=ts_zmat_field_N25.gjf
 Output=ts_zmat_field_N25.out
 Initial command:
 /software/gaussian/g16-a03/l1.exe "/local_scratch/11171766/Gau-27344.inp" -scrdir="/local_scratch/11171766/"
 Entering Link 1 = /software/gaussian/g16-a03/l1.exe PID=     27345.
  
 Copyright (c) 1988,1990,1992,1993,1995,1998,2003,2009,2016,
            Gaussian, Inc.  All Rights Reserved.
  
 This is part of the Gaussian(R) 16 program.  It is based on
 the Gaussian(R) 09 system (copyright 2009, Gaussian, Inc.),
 the Gaussian(R) 03 system (copyright 2003, Gaussian, Inc.),
 the Gaussian(R) 98 system (copyright 1998, Gaussian, Inc.),
 the Gaussian(R) 94 system (copyright 1995, Gaussian, Inc.),
 the Gaussian 92(TM) system (copyright 1992, Gaussian, Inc.),
 the Gaussian 90(TM) system (copyright 1990, Gaussian, Inc.),
 the Gaussian 88(TM) system (copyright 1988, Gaussian, Inc.),
 the Gaussian 86(TM) system (copyright 1986, Carnegie Mellon
 University), and the Gaussian 82(TM) system (copyright 1983,
 Carnegie Mellon University). Gaussian is a federally registered
 trademark of Gaussian, Inc.
  
 This software contains proprietary and confidential information,
 including trade secrets, belonging to Gaussian, Inc.
  
 This software is provided under written license and may be
 used, copied, transmitted, or stored only in accord with that
 written license.
  
 The following legend is applicable only to US Government
 contracts under FAR:
  
                    RESTRICTED RIGHTS LEGEND
  
 Use, reproduction and disclosure by the US Government is
 subject to restrictions as set forth in subparagraphs (a)
 and (c) of the Commercial Computer Software - Restricted
 Rights clause in FAR 52.227-19.
  
 Gaussian, Inc.
 340 Quinnipiac St., Bldg. 40, Wallingford CT 06492
  
  
 ---------------------------------------------------------------
 Warning -- This program may not be used in any manner that
 competes with the business of Gaussian, Inc. or will provide
 assistance to any competitor of Gaussian, Inc.  The licensee
 of this program is prohibited from giving any competitor of
 Gaussian, Inc. access to this program.  By using this program,
 the user acknowledges that Gaussian, Inc. is engaged in the
 business of creating and licensing software in the field of
 computational chemistry and represents and warrants to the
 licensee that it is not a competitor of Gaussian, Inc. and that
 it will not use this program in any manner prohibited above.
 ---------------------------------------------------------------
  

 Cite this work as:
 Gaussian 16, Revision A.03,
 M. J. Frisch, G. W. Trucks, H. B. Schlegel, G. E. Scuseria, 
 M. A. Robb, J. R. Cheeseman, G. Scalmani, V. Barone, 
 G. A. Petersson, H. Nakatsuji, X. Li, M. Caricato, A. V. Marenich, 
 J. Bloino, B. G. Janesko, R. Gomperts, B. Mennucci, H. P. Hratchian, 
 J. V. Ortiz, A. F. Izmaylov, J. L. Sonnenberg, D. Williams-Young, 
 F. Ding, F. Lipparini, F. Egidi, J. Goings, B. Peng, A. Petrone, 
 T. Henderson, D. Ranasinghe, V. G. Zakrzewski, J. Gao, N. Rega, 
 G. Zheng, W. Liang, M. Hada, M. Ehara, K. Toyota, R. Fukuda, 
 J. Hasegawa, M. Ishida, T. Nakajima, Y. Honda, O. Kitao, H. Nakai, 
 T. Vreven, K. Throssell, J. A. Montgomery, Jr., J. E. Peralta, 
 F. Ogliaro, M. J. Bearpark, J. J. Heyd, E. N. Brothers, K. N. Kudin, 
 V. N. Staroverov, T. A. Keith, R. Kobayashi, J. Normand, 
 K. Raghavachari, A. P. Rendell, J. C. Burant, S. S. Iyengar, 
 J. Tomasi, M. Cossi, J. M. Millam, M. Klene, C. Adamo, R. Cammi, 
 J. W. Ochterski, R. L. Martin, K. Morokuma, O. Farkas, 
 J. B. Foresman, and D. J. Fox, Gaussian, Inc., Wallingford CT, 2016.
 
 ******************************************
 Gaussian 16:  ES64L-G16RevA.03 25-Dec-2016
                10-Jun-2022 
 ******************************************
 %nprocshared=12
 Will use up to   12 processors via shared memory.
 %chk=checkpoint.chk
 %mem=12GB
 ----------------------------------------------------------------------
 # Opt=(TS, CalcFC, noeigentest, Z-matrix, MaxStep=10) Field=read NoSym
 m B3LYP/Def2TZVP freq=noraman pop=none
 ----------------------------------------------------------------------
 1/5=1,8=10,10=4,11=1,18=40,26=3,38=1/1,3;
 2/12=2,15=1,17=6,18=5,29=3,40=1/2;
 3/5=44,7=101,11=2,14=-6,25=1,30=1,71=2,74=-5,140=1/1,2,3;
 4//1;
 5/5=2,38=5/2;
 8/6=4,10=90,11=11/1;
 11/6=1,8=1,9=11,15=111,16=1,31=1/1,2,10;
 10/6=1,13=1,31=1/2;
 7/10=1,18=20,25=1,30=1/1,2,3,16;
 1/5=1,8=10,10=4,11=1,18=40,26=3/3(2);
 2/15=1,29=3/2;
 99//99;
 2/15=1,29=3/2;
 3/5=44,7=101,11=2,14=-2,25=1,30=1,71=1,74=-5/1,2,3;
 4/5=5,16=3,69=1/1;
 5/5=2,38=5/2;
 7/30=1/1,2,3,16;
 1/5=1,8=10,11=1,18=40,26=3/3(-5);
 2/15=1,29=3/2;
 99/9=1/99;
 -----------------
 ts_zmat_initalOpt
 -----------------
 Symbolic Z-matrix:
 Charge =  0 Multiplicity = 1
 C
 C                    1    R2
 C                    1    R3       2    A3
 H                    1    R4       2    A4       3    D4       0
 C                    2    R5       1    A5       3    D5       0
 N                    3    R6       1    A6       2    D6       0
 H                    3    R7       1    A7       6    D7       0
 H                    2    R8       1    A8       5    D8       0
 H                    3    R9       1    A9       6    D9       0
 H                    5    R10      2    A10      1    D10      0
       Variables:
  R2                    1.39163                  
  R3                    1.40048                  
  R4                    1.07852                  
  R5                    1.39546                  
  R6                    1.45423                  
  R7                    1.07928                  
  R8                    1.07962                  
  R9                    1.29016                  
  R10                   1.07973                  
  A3                  106.63906                  
  A4                  127.31466                  
  A5                  107.55931                  
  A6                  109.24852                  
  A7                  129.66066                  
  A8                  126.41566                  
  A9                  115.14097                  
  A10                 127.98006                  
  D4                  179.74599                  
  D5                    0.83033                  
  D6                    1.40223                  
  D7                  161.08096                  
  D8                  178.21577                  
  D9                  -59.49723                  
  D10                 174.78041                  
 

 GradGradGradGradGradGradGradGradGradGradGradGradGradGradGradGradGradGrad
 Berny optimization.
 Initialization pass.
                       ----------------------------
                       !    Initial Parameters    !
                       ! (Angstroms and Degrees)  !
 ----------------------                            ----------------------
 !      Name          Value   Derivative information (Atomic Units)     !
 ------------------------------------------------------------------------
 !       R2          1.3916   calculate D2E/DX2 analytically            !
 !       R3          1.4005   calculate D2E/DX2 analytically            !
 !       R4          1.0785   calculate D2E/DX2 analytically            !
 !       R5          1.3955   calculate D2E/DX2 analytically            !
 !       R6          1.4542   calculate D2E/DX2 analytically            !
 !       R7          1.0793   calculate D2E/DX2 analytically            !
 !       R8          1.0796   calculate D2E/DX2 analytically            !
 !       R9          1.2902   calculate D2E/DX2 analytically            !
 !       R10         1.0797   calculate D2E/DX2 analytically            !
 !       A3        106.6391   calculate D2E/DX2 analytically            !
 !       A4        127.3147   calculate D2E/DX2 analytically            !
 !       A5        107.5593   calculate D2E/DX2 analytically            !
 !       A6        109.2485   calculate D2E/DX2 analytically            !
 !       A7        129.6607   calculate D2E/DX2 analytically            !
 !       A8        126.4157   calculate D2E/DX2 analytically            !
 !       A9        115.141    calculate D2E/DX2 analytically            !
 !       A10       127.9801   calculate D2E/DX2 analytically            !
 !       D4        179.746    calculate D2E/DX2 analytically            !
 !       D5          0.8303   calculate D2E/DX2 analytically            !
 !       D6          1.4022   calculate D2E/DX2 analytically            !
 !       D7        161.081    calculate D2E/DX2 analytically            !
 !       D8        178.2158   calculate D2E/DX2 analytically            !
 !       D9        -59.4972   calculate D2E/DX2 analytically            !
 !       D10       174.7804   calculate D2E/DX2 analytically            !
 ------------------------------------------------------------------------
 Trust Radius=1.00D-01 FncErr=1.00D-07 GrdErr=1.00D-06 EigMax=2.50D+02 EigMin=1.00D-04
 Number of steps in this run=     34 maximum allowed number of steps=    100.
 Search for a saddle point of order  1.
 GradGradGradGradGradGradGradGradGradGradGradGradGradGradGradGradGradGrad

 ---------------------------------------------------------------------------------------------------
                            Z-MATRIX (ANGSTROMS AND DEGREES)
   CD    Cent   Atom    N1       Length/X        N2       Alpha/Y        N3        Beta/Z          J
 ---------------------------------------------------------------------------------------------------
      1      1  C 
      2      2  C        1   1.391629(     1)
      3      3  C        1   1.400479(     2)      2  106.639(    10)
      4      4  H        1   1.078517(     3)      2  127.315(    11)      3  179.746(    18)      0
      5      5  C        2   1.395455(     4)      1  107.559(    12)      3    0.830(    19)      0
      6      6  N        3   1.454228(     5)      1  109.249(    13)      2    1.402(    20)      0
      7      7  H        3   1.079278(     6)      1  129.661(    14)      6  161.081(    21)      0
      8      8  H        2   1.079620(     7)      1  126.416(    15)      5  178.216(    22)      0
      9      9  H        3   1.290158(     8)      1  115.141(    16)      6  -59.497(    23)      0
     10     10  H        5   1.079730(     9)      2  127.980(    17)      1  174.780(    24)      0
 ---------------------------------------------------------------------------------------------------
                         Z-Matrix orientation:                         
 ---------------------------------------------------------------------
 Center     Atomic      Atomic             Coordinates (Angstroms)
 Number     Number       Type             X           Y           Z
 ---------------------------------------------------------------------
      1          6           0        0.000000    0.000000    0.000000
      2          6           0        0.000000    0.000000    1.391629
      3          6           0        1.341837    0.000000   -0.401015
      4          1           0       -0.857756   -0.003803   -0.653789
      5          6           0        1.330294    0.019280    1.812627
      6          7           0        2.194183   -0.033597    0.776761
      7          1           0        1.774952   -0.250080   -1.357422
      8          1           0       -0.868684    0.014464    2.032533
      9          1           0        2.043756    0.991490    0.033457
     10          1           0        1.706928    0.102171    2.821138
 ---------------------------------------------------------------------
                    Distance matrix (angstroms):
                    1          2          3          4          5
     1  C    0.000000
     2  C    1.391629   0.000000
     3  C    1.400479   2.239219   0.000000
     4  H    1.078517   2.217993   2.214073   0.000000
     5  C    2.248482   1.395455   2.213757   3.297166   0.000000
     6  N    2.327859   2.278954   1.454228   3.370711   1.349859
     7  H    2.248464   3.281809   1.079278   2.736221   3.212396
     8  H    2.210432   1.079620   3.287669   2.686406   2.209952
     9  H    2.271808   2.646624   1.290158   3.143515   2.149341
    10  H    3.298918   2.228797   3.244380   4.320179   1.079730
                    6          7          8          9         10
     6  N    0.000000
     7  H    2.185716   0.000000
     8  H    3.310654   4.307039   0.000000
     9  H    1.275121   1.883692   3.665132   0.000000
    10  H    2.106022   4.193933   2.695063   2.945421   0.000000
 Symmetry turned off by external request.
 Stoichiometry    C4H5N
 Framework group  C1[X(C4H5N)]
 Deg. of freedom    24
 Full point group                 C1      NOp   1
 Rotational constants (GHZ):           9.1999105           8.8525117           4.5996332
 Standard basis: def2TZVP (5D, 7F)
 The following finite field(s) will be applied:
 An electric field of              0.0020 -0.0005  0.0015
   185 basis functions,   295 primitive gaussians,   210 cartesian basis functions
    18 alpha electrons       18 beta electrons
       nuclear repulsion energy       160.5895358688 Hartrees.
 NAtoms=   10 NActive=   10 NUniq=   10 SFac= 1.00D+00 NAtFMM=   60 NAOKFM=F Big=F
 Integral buffers will be    131072 words long.
 Raffenetti 2 integral format.
 Two-electron integral symmetry is turned off.
 One-electron integrals computed using PRISM.
   1 Symmetry operations used in ECPInt.
 ECPInt:  NShTT=    2850 NPrTT=    8640 LenC2=    2843 LenP2D=    7477.
 LDataN:  DoStor=T MaxTD1= 6 Len=  172
 NBasis=   185 RedAO= T EigKep=  5.73D-05  NBF=   185
 NBsUse=   185 1.00D-06 EigRej= -1.00D+00 NBFU=   185
 The nuclear repulsion energy is now       160.7896097480 hartrees.
 ExpMin= 9.52D-02 ExpMax= 1.97D+04 ExpMxC= 6.73D+02 IAcc=3 IRadAn=         5 AccDes= 0.00D+00
 Harris functional with IExCor=  402 and IRadAn=       5 diagonalized for initial guess.
 HarFok:  IExCor=  402 AccDes= 0.00D+00 IRadAn=         5 IDoV= 1 UseB2=F ITyADJ=14
 ICtDFT=  3500011 ScaDFX=  1.000000  1.000000  1.000000  1.000000
 FoFCou: FMM=F IPFlag=           0 FMFlag=      100000 FMFlg1=           0
         NFxFlg=           0 DoJE=T BraDBF=F KetDBF=T FulRan=T
         wScrn=  0.000000 ICntrl=       500 IOpCl=  0 I1Cent=   200000004 NGrid=           0
         NMat0=    1 NMatS0=      1 NMatT0=    0 NMatD0=    1 NMtDS0=    0 NMtDT0=    0
 Symmetry not used in FoFCou.
 Keep R1 ints in memory in canonical form, NReq=160464061.
 Requested convergence on RMS density matrix=1.00D-08 within 128 cycles.
 Requested convergence on MAX density matrix=1.00D-06.
 Requested convergence on             energy=1.00D-06.
 No special actions if energy rises.
 Integral accuracy reduced to 1.0D-05 until final iterations.
 Initial convergence to 1.0D-05 achieved.  Increase integral accuracy.
 SCF Done:  E(RB3LYP) =  -210.177251655     A.U. after   14 cycles
            NFock= 14  Conv=0.33D-08     -V/T= 2.0051
 DoSCS=F DFT=T ScalE2(SS,OS)=  1.000000  1.000000
 Range of M.O.s used for correlation:     1   185
 NBasis=   185 NAE=    18 NBE=    18 NFC=     0 NFV=     0
 NROrb=    185 NOA=    18 NOB=    18 NVA=   167 NVB=   167

 **** Warning!!: The largest alpha MO coefficient is  0.25197282D+02

   1 Symmetry operations used in ECPInt.
 ECPInt:  NShTT=    2850 NPrTT=    8640 LenC2=    2843 LenP2D=    7477.
 LDataN:  DoStor=T MaxTD1= 7 Len=  274
 Symmetrizing basis deriv contribution to polar:
 IMax=3 JMax=2 DiffMx= 0.00D+00
 G2DrvN: will do    11 centers at a time, making    1 passes.
 Calling FoFCou, ICntrl=  3107 FMM=F I1Cent=   0 AccDes= 0.00D+00.
 End of G2Drv F.D. properties file   721 does not exist.
 End of G2Drv F.D. properties file   722 does not exist.
 End of G2Drv F.D. properties file   788 does not exist.
          IDoAtm=1111111111
          Differentiating once with respect to nuclear coordinates.
 Keep R1 ints in memory in canonical form, NReq=160431867.
          There are    33 degrees of freedom in the 1st order CPHF.  IDoFFX=6 NUNeed=     0.
     27 vectors produced by pass  0 Test12= 9.11D-15 3.03D-09 XBig12= 1.03D-01 1.08D-01.
 AX will form    27 AO Fock derivatives at one time.
     27 vectors produced by pass  1 Test12= 9.11D-15 3.03D-09 XBig12= 1.91D-02 5.56D-02.
     27 vectors produced by pass  2 Test12= 9.11D-15 3.03D-09 XBig12= 2.31D-04 2.47D-03.
     27 vectors produced by pass  3 Test12= 9.11D-15 3.03D-09 XBig12= 1.00D-06 1.42D-04.
     27 vectors produced by pass  4 Test12= 9.11D-15 3.03D-09 XBig12= 2.82D-09 8.50D-06.
     25 vectors produced by pass  5 Test12= 9.11D-15 3.03D-09 XBig12= 5.46D-12 3.72D-07.
      7 vectors produced by pass  6 Test12= 9.11D-15 3.03D-09 XBig12= 1.01D-14 1.71D-08.
 InvSVY:  IOpt=1 It=  1 EMax= 2.00D-15
 Solved reduced A of dimension   167 with    27 vectors.
 End of Minotr F.D. properties file   721 does not exist.
 End of Minotr F.D. properties file   722 does not exist.
 End of Minotr F.D. properties file   788 does not exist.
   1 Symmetry operations used in ECPInt.
 ECPInt:  NShTT=    2850 NPrTT=    8640 LenC2=    2843 LenP2D=    7477.
 LDataN:  DoStor=T MaxTD1= 8 Len=  415
 Calling FoFJK, ICntrl=    100147 FMM=F ISym2X=0 I1Cent= 0 IOpClX= 0 NMat=1 NMatS=1 NMatT=0.
 -------------------------------------------------------------------
 Center     Atomic                   Forces (Hartrees/Bohr)
 Number     Number              X              Y              Z
 -------------------------------------------------------------------
      1        6           0.000050181   -0.000011355    0.000011598
      2        6           0.000032338   -0.000006998    0.000092953
      3        6          -0.000323456    0.000005670    0.000062538
      4        1           0.000082327    0.000084325    0.000056445
      5        6          -0.000325870   -0.000269203   -0.000358867
      6        7           0.001239111   -0.000239187    0.000748122
      7        1          -0.000166572    0.000136158   -0.000077832
      8        1          -0.000096430    0.000054360   -0.000202465
      9        1          -0.000442403    0.000075990   -0.000481655
     10        1          -0.000049225    0.000170238    0.000149163
 -------------------------------------------------------------------
 Cartesian Forces:  Max     0.001239111 RMS     0.000326120
 -----------------------------------------------------------------------------------------------
                       Internal Coordinate Forces (Hartree/Bohr or radian)
  Cent   Atom   N1       Length/X         N2         Alpha/Y        N3         Beta/Z          J
 -----------------------------------------------------------------------------------------------
      1  C 
      2  C        1  -0.000319(     1)
      3  C        1   0.000222(     2)      2   0.001324(    10)
      4  H        1  -0.000100(     3)      2   0.000011(    11)      3   0.000136(    18)     0
      5  C        2  -0.000422(     4)      1  -0.000032(    12)      3  -0.000193(    19)     0
      6  N        3   0.001338(     5)      1   0.001549(    13)      2  -0.000377(    20)     0
      7  H        3  -0.000029(     6)      1  -0.000314(    14)      6   0.000262(    21)     0
      8  H        2  -0.000042(     7)      1  -0.000450(    15)      5  -0.000087(    22)     0
      9  H        3  -0.000344(     8)      1  -0.000376(    16)      6  -0.001191(    23)     0
     10  H        5   0.000135(     9)      2  -0.000214(    17)      1  -0.000251(    24)     0
 -----------------------------------------------------------------------------------------------
 Internal  Forces:  Max     0.001548601 RMS     0.000600812

 GradGradGradGradGradGradGradGradGradGradGradGradGradGradGradGradGradGrad
 Berny optimization.
 Search for a saddle point.
 Step number   1 out of a maximum of   34
 All quantities printed in internal units (Hartrees-Bohrs-Radians)
 Swapping is turned off.
 Second derivative matrix not updated -- analytic derivatives used.
 ITU=  0
     Eigenvalues ---   -0.26469   0.03356   0.04767   0.05322   0.06381
     Eigenvalues ---    0.12914   0.17235   0.18510   0.19846   0.21503
     Eigenvalues ---    0.24012   0.24968   0.29261   0.35224   0.36129
     Eigenvalues ---    0.36508   0.36755   0.36969   0.40641   0.47522
     Eigenvalues ---    0.59116   1.52072   2.16795  14.03186
 Eigenvectors required to have negative eigenvalues:
                          D9        R9        A9        D7        R6
   1                    0.75571   0.52392   0.20756   0.15976  -0.15496
                          R3        R5        R2        A6        A10
   1                   -0.14861  -0.11845   0.11780   0.08725   0.04170
 RFO step:  Lambda0=5.973556946D-06 Lambda=-1.49276970D-05.
 Linear search not attempted -- option 19 set.
 Variable       Old X    -DE/DX   Delta X   Delta X   Delta X     New X
                                 (Linear)    (Quad)   (Total)
    R2        2.62980  -0.00032   0.00000   0.00039   0.00039   2.63019
    R3        2.64652   0.00022   0.00000  -0.00192  -0.00192   2.64460
    R4        2.03810  -0.00010   0.00000  -0.00026  -0.00026   2.03784
    R5        2.63703  -0.00042   0.00000  -0.00129  -0.00129   2.63573
    R6        2.74809   0.00134   0.00000   0.00297   0.00297   2.75106
    R7        2.03954  -0.00003   0.00000  -0.00015  -0.00015   2.03939
    R8        2.04019  -0.00004   0.00000  -0.00013  -0.00013   2.04006
    R9        2.43805  -0.00034   0.00000   0.00252   0.00252   2.44056
   R10        2.04039   0.00014   0.00000   0.00039   0.00039   2.04079
    A3        1.86120   0.00132   0.00000   0.00016   0.00016   1.86136
    A4        2.22206   0.00001   0.00000   0.00007   0.00007   2.22213
    A5        1.87726  -0.00003   0.00000   0.00006   0.00006   1.87732
    A6        1.90675   0.00155   0.00000   0.00112   0.00112   1.90787
    A7        2.26301  -0.00031   0.00000  -0.00021  -0.00021   2.26280
    A8        2.20637  -0.00045   0.00000  -0.00201  -0.00201   2.20436
    A9        2.00959  -0.00038   0.00000  -0.00276  -0.00276   2.00683
   A10        2.23367  -0.00021   0.00000  -0.00137  -0.00137   2.23230
    D4        3.13716   0.00014   0.00000   0.00076   0.00076   3.13792
    D5        0.01449  -0.00019   0.00000   0.00184   0.00184   0.01633
    D6        0.02447  -0.00038   0.00000  -0.00309  -0.00309   0.02139
    D7        2.81139   0.00026   0.00000   0.01080   0.01080   2.82219
    D8        3.11045  -0.00009   0.00000  -0.00298  -0.00298   3.10747
    D9       -1.03842  -0.00119   0.00000   0.00311   0.00311  -1.03531
   D10        3.05049  -0.00025   0.00000  -0.00492  -0.00492   3.04558
         Item               Value     Threshold  Converged?
 Maximum Force            0.001549     0.000450     NO 
 RMS     Force            0.000601     0.000300     NO 
 Maximum Displacement     0.010799     0.001800     NO 
 RMS     Displacement     0.002949     0.001200     NO 
 Predicted change in Energy=-4.477002D-06
 GradGradGradGradGradGradGradGradGradGradGradGradGradGradGradGradGradGrad

 ---------------------------------------------------------------------------------------------------
                            Z-MATRIX (ANGSTROMS AND DEGREES)
   CD    Cent   Atom    N1       Length/X        N2       Alpha/Y        N3        Beta/Z          J
 ---------------------------------------------------------------------------------------------------
      1      1  C 
      2      2  C        1   1.391835(     1)
      3      3  C        1   1.399462(     2)      2  106.648(    10)
      4      4  H        1   1.078378(     3)      2  127.319(    11)      3  179.790(    18)      0
      5      5  C        2   1.394771(     4)      1  107.563(    12)      3    0.936(    19)      0
      6      6  N        3   1.455797(     5)      1  109.313(    13)      2    1.225(    20)      0
      7      7  H        3   1.079198(     6)      1  129.649(    14)      6  161.700(    21)      0
      8      8  H        2   1.079551(     7)      1  126.300(    15)      5  178.045(    22)      0
      9      9  H        3   1.291490(     8)      1  114.983(    16)      6  -59.319(    23)      0
     10     10  H        5   1.079938(     9)      2  127.901(    17)      1  174.499(    24)      0
 ---------------------------------------------------------------------------------------------------
                         Z-Matrix orientation:                         
 ---------------------------------------------------------------------
 Center     Atomic      Atomic             Coordinates (Angstroms)
 Number     Number       Type             X           Y           Z
 ---------------------------------------------------------------------
      1          6           0        0.000000    0.000000    0.000000
      2          6           0        0.000000    0.000000    1.391835
      3          6           0        1.340799    0.000000   -0.400937
      4          1           0       -0.857601   -0.003148   -0.653766
      5          6           0        1.329581    0.021717    1.812702
      6          7           0        2.195600   -0.029381    0.777111
      7          1           0        1.772977   -0.243985   -1.359249
      8          1           0       -0.869898    0.015476    2.030951
      9          1           0        2.040651    0.993779    0.035591
     10          1           0        1.704737    0.109550    2.821567
 ---------------------------------------------------------------------
                    Distance matrix (angstroms):
                    1          2          3          4          5
     1  C    0.000000
     2  C    1.391835   0.000000
     3  C    1.399462   2.238700   0.000000
     4  H    1.078378   2.218102   2.212893   0.000000
     5  C    2.248143   1.394771   2.213774   3.296642   0.000000
     6  N    2.329254   2.280221   1.455797   3.371963   1.350943
     7  H    2.247340   3.281987   1.079198   2.734164   3.213794
     8  H    2.209462   1.079551   3.286564   2.684810   2.210289
     9  H    2.270048   2.644098   1.291490   3.141487   2.146777
    10  H    3.298389   2.227613   3.244840   4.319285   1.079938
                    6          7          8          9         10
     6  N    0.000000
     7  H    2.188310   0.000000
     8  H    3.312310   4.306456   0.000000
     9  H    1.273075   1.883956   3.661944   0.000000
    10  H    2.107142   4.196292   2.694934   2.942170   0.000000
 Symmetry turned off by external request.
 Stoichiometry    C4H5N
 Framework group  C1[X(C4H5N)]
 Deg. of freedom    24
 Full point group                 C1      NOp   1
 Rotational constants (GHZ):           9.2003193           8.8481540           4.5982695
 Standard basis: def2TZVP (5D, 7F)
 The following finite field(s) will be applied:
 An electric field of              0.0020 -0.0005  0.0015
   185 basis functions,   295 primitive gaussians,   210 cartesian basis functions
    18 alpha electrons       18 beta electrons
       nuclear repulsion energy       160.5720996704 Hartrees.
 NAtoms=   10 NActive=   10 NUniq=   10 SFac= 1.00D+00 NAtFMM=   60 NAOKFM=F Big=F
 Integral buffers will be    131072 words long.
 Raffenetti 2 integral format.
 Two-electron integral symmetry is turned off.
 One-electron integrals computed using PRISM.
   1 Symmetry operations used in ECPInt.
 ECPInt:  NShTT=    2850 NPrTT=    8640 LenC2=    2843 LenP2D=    7479.
 LDataN:  DoStor=T MaxTD1= 6 Len=  172
 NBasis=   185 RedAO= T EigKep=  5.71D-05  NBF=   185
 NBsUse=   185 1.00D-06 EigRej= -1.00D+00 NBFU=   185
 The nuclear repulsion energy is now       160.7720973781 hartrees.
 Initial guess from the checkpoint file:  "checkpoint.chk"
 B after Tr=    -0.000331   -0.000443    0.000118
         Rot=    1.000000    0.000269    0.000028   -0.000803 Ang=   0.10 deg.
 Keep R1 ints in memory in canonical form, NReq=160464061.
 Requested convergence on RMS density matrix=1.00D-08 within 128 cycles.
 Requested convergence on MAX density matrix=1.00D-06.
 Requested convergence on             energy=1.00D-06.
 No special actions if energy rises.
 SCF Done:  E(RB3LYP) =  -210.177256135     A.U. after    9 cycles
            NFock=  9  Conv=0.36D-08     -V/T= 2.0051
   1 Symmetry operations used in ECPInt.
 ECPInt:  NShTT=    2850 NPrTT=    8640 LenC2=    2843 LenP2D=    7479.
 LDataN:  DoStor=T MaxTD1= 7 Len=  274
 Calling FoFJK, ICntrl=      2127 FMM=F ISym2X=0 I1Cent= 0 IOpClX= 0 NMat=1 NMatS=1 NMatT=0.
 -------------------------------------------------------------------
 Center     Atomic                   Forces (Hartrees/Bohr)
 Number     Number              X              Y              Z
 -------------------------------------------------------------------
      1        6           0.000096113   -0.000248895    0.000001164
      2        6          -0.000099036    0.000137802   -0.000000007
      3        6           0.000001524    0.000107461   -0.000007047
      4        1          -0.000000133    0.000000227   -0.000000010
      5        6           0.000004378   -0.000000220   -0.000001910
      6        7          -0.000003579    0.000001979    0.000009713
      7        1          -0.000001679    0.000001168   -0.000002044
      8        1          -0.000000173    0.000000119    0.000000008
      9        1           0.000002477    0.000000954   -0.000000104
     10        1           0.000000109   -0.000000595    0.000000236
 -------------------------------------------------------------------
 Cartesian Forces:  Max     0.000248895 RMS     0.000061029
 -----------------------------------------------------------------------------------------------
                       Internal Coordinate Forces (Hartree/Bohr or radian)
  Cent   Atom   N1       Length/X         N2         Alpha/Y        N3         Beta/Z          J
 -----------------------------------------------------------------------------------------------
      1  C 
      2  C        1  -0.000002(     1)
      3  C        1  -0.000001(     2)      2  -0.000017(    10)
      4  H        1   0.000000(     3)      2  -0.000000(    11)      3   0.000000(    18)     0
      5  C        2   0.000004(     4)      1  -0.000008(    12)      3  -0.000003(    19)     0
      6  N        3   0.000006(     5)      1  -0.000024(    13)      2  -0.000003(    20)     0
      7  H        3   0.000001(     6)      1  -0.000004(    14)      6   0.000003(    21)     0
      8  H        2   0.000000(     7)      1  -0.000000(    15)      5  -0.000000(    22)     0
      9  H        3   0.000002(     8)      1   0.000004(    16)      6   0.000000(    23)     0
     10  H        5   0.000000(     9)      2   0.000000(    17)      1   0.000001(    24)     0
 -----------------------------------------------------------------------------------------------
 Internal  Forces:  Max     0.000023622 RMS     0.000006546

 GradGradGradGradGradGradGradGradGradGradGradGradGradGradGradGradGradGrad
 Berny optimization.
 Search for a saddle point.
 Step number   2 out of a maximum of   34
 All quantities printed in internal units (Hartrees-Bohrs-Radians)
 Swapping is turned off.
 Update second derivatives using D2CorN and points    1    2
 ITU=  0  0
     Eigenvalues ---   -0.26466   0.03358   0.04764   0.05322   0.06382
     Eigenvalues ---    0.12914   0.17235   0.18510   0.19846   0.21500
     Eigenvalues ---    0.24012   0.24968   0.29249   0.35225   0.36129
     Eigenvalues ---    0.36508   0.36755   0.36969   0.40641   0.47523
     Eigenvalues ---    0.59116   1.52071   2.16799  14.03187
 Eigenvectors required to have negative eigenvalues:
                          D9        R9        A9        D7        R6
   1                    0.75572   0.52396   0.20766   0.15974  -0.15486
                          R3        R5        R2        A6        A10
   1                   -0.14853  -0.11841   0.11779   0.08714   0.04170
 RFO step:  Lambda0=4.741013138D-12 Lambda= 0.00000000D+00.
 Linear search not attempted -- option 19 set.
 Variable       Old X    -DE/DX   Delta X   Delta X   Delta X     New X
                                 (Linear)    (Quad)   (Total)
    R2        2.63019  -0.00000   0.00000  -0.00000  -0.00000   2.63018
    R3        2.64460  -0.00000   0.00000   0.00001   0.00001   2.64461
    R4        2.03784   0.00000   0.00000   0.00000   0.00000   2.03784
    R5        2.63573   0.00000   0.00000   0.00001   0.00001   2.63574
    R6        2.75106   0.00001   0.00000   0.00002   0.00002   2.75108
    R7        2.03939   0.00000   0.00000   0.00000   0.00000   2.03939
    R8        2.04006   0.00000   0.00000   0.00000   0.00000   2.04006
    R9        2.44056   0.00000   0.00000   0.00001   0.00001   2.44057
   R10        2.04079   0.00000   0.00000   0.00000   0.00000   2.04079
    A3        1.86136  -0.00002   0.00000   0.00001   0.00001   1.86137
    A4        2.22213  -0.00000   0.00000  -0.00000  -0.00000   2.22213
    A5        1.87732  -0.00001   0.00000  -0.00000  -0.00000   1.87732
    A6        1.90787  -0.00002   0.00000  -0.00001  -0.00001   1.90785
    A7        2.26280  -0.00000   0.00000  -0.00001  -0.00001   2.26278
    A8        2.20436  -0.00000   0.00000  -0.00000  -0.00000   2.20436
    A9        2.00683   0.00000   0.00000   0.00001   0.00001   2.00683
   A10        2.23230   0.00000   0.00000  -0.00000  -0.00000   2.23230
    D4        3.13792   0.00000   0.00000   0.00001   0.00001   3.13793
    D5        0.01633  -0.00000   0.00000  -0.00000  -0.00000   0.01633
    D6        0.02139  -0.00000   0.00000   0.00000   0.00000   0.02139
    D7        2.82219   0.00000   0.00000   0.00002   0.00002   2.82221
    D8        3.10747  -0.00000   0.00000   0.00000   0.00000   3.10748
    D9       -1.03531   0.00000   0.00000   0.00000   0.00000  -1.03530
   D10        3.04558   0.00000   0.00000   0.00002   0.00002   3.04559
         Item               Value     Threshold  Converged?
 Maximum Force            0.000024     0.000450     YES
 RMS     Force            0.000007     0.000300     YES
 Maximum Displacement     0.000020     0.001800     YES
 RMS     Displacement     0.000009     0.001200     YES
 Predicted change in Energy=-2.643819D-10
 Optimization completed.
    -- Stationary point found.
                       ----------------------------
                       !   Optimized Parameters   !
                       ! (Angstroms and Degrees)  !
 ----------------------                            ----------------------
 !      Name          Value   Derivative information (Atomic Units)     !
 ------------------------------------------------------------------------
 !       R2          1.3918   -DE/DX =    0.0                           !
 !       R3          1.3995   -DE/DX =    0.0                           !
 !       R4          1.0784   -DE/DX =    0.0                           !
 !       R5          1.3948   -DE/DX =    0.0                           !
 !       R6          1.4558   -DE/DX =    0.0                           !
 !       R7          1.0792   -DE/DX =    0.0                           !
 !       R8          1.0796   -DE/DX =    0.0                           !
 !       R9          1.2915   -DE/DX =    0.0                           !
 !       R10         1.0799   -DE/DX =    0.0                           !
 !       A3        106.6482   -DE/DX =    0.0                           !
 !       A4        127.3188   -DE/DX =    0.0                           !
 !       A5        107.5625   -DE/DX =    0.0                           !
 !       A6        109.3126   -DE/DX =    0.0                           !
 !       A7        129.6486   -DE/DX =    0.0                           !
 !       A8        126.3005   -DE/DX =    0.0                           !
 !       A9        114.9826   -DE/DX =    0.0                           !
 !       A10       127.9014   -DE/DX =    0.0                           !
 !       D4        179.7897   -DE/DX =    0.0                           !
 !       D5          0.9358   -DE/DX =    0.0                           !
 !       D6          1.2254   -DE/DX =    0.0                           !
 !       D7        161.6997   -DE/DX =    0.0                           !
 !       D8        178.045    -DE/DX =    0.0                           !
 !       D9        -59.3188   -DE/DX =    0.0                           !
 !       D10       174.4986   -DE/DX =    0.0                           !
 ------------------------------------------------------------------------
 GradGradGradGradGradGradGradGradGradGradGradGradGradGradGradGradGradGrad

 ---------------------------------------------------------------------------------------------------
                            Z-MATRIX (ANGSTROMS AND DEGREES)
   CD    Cent   Atom    N1       Length/X        N2       Alpha/Y        N3        Beta/Z          J
 ---------------------------------------------------------------------------------------------------
      1      1  C 
      2      2  C        1   1.391835(     1)
      3      3  C        1   1.399462(     2)      2  106.648(    10)
      4      4  H        1   1.078378(     3)      2  127.319(    11)      3  179.790(    18)      0
      5      5  C        2   1.394771(     4)      1  107.563(    12)      3    0.936(    19)      0
      6      6  N        3   1.455797(     5)      1  109.313(    13)      2    1.225(    20)      0
      7      7  H        3   1.079198(     6)      1  129.649(    14)      6  161.700(    21)      0
      8      8  H        2   1.079551(     7)      1  126.300(    15)      5  178.045(    22)      0
      9      9  H        3   1.291490(     8)      1  114.983(    16)      6  -59.319(    23)      0
     10     10  H        5   1.079938(     9)      2  127.901(    17)      1  174.499(    24)      0
 ---------------------------------------------------------------------------------------------------
                         Z-Matrix orientation:                         
 ---------------------------------------------------------------------
 Center     Atomic      Atomic             Coordinates (Angstroms)
 Number     Number       Type             X           Y           Z
 ---------------------------------------------------------------------
      1          6           0        0.000000    0.000000    0.000000
      2          6           0        0.000000    0.000000    1.391835
      3          6           0        1.340799    0.000000   -0.400937
      4          1           0       -0.857601   -0.003148   -0.653766
      5          6           0        1.329581    0.021717    1.812702
      6          7           0        2.195600   -0.029381    0.777111
      7          1           0        1.772977   -0.243985   -1.359249
      8          1           0       -0.869898    0.015476    2.030951
      9          1           0        2.040651    0.993779    0.035591
     10          1           0        1.704737    0.109550    2.821567
 ---------------------------------------------------------------------
                    Distance matrix (angstroms):
                    1          2          3          4          5
     1  C    0.000000
     2  C    1.391835   0.000000
     3  C    1.399462   2.238700   0.000000
     4  H    1.078378   2.218102   2.212893   0.000000
     5  C    2.248143   1.394771   2.213774   3.296642   0.000000
     6  N    2.329254   2.280221   1.455797   3.371963   1.350943
     7  H    2.247340   3.281987   1.079198   2.734164   3.213794
     8  H    2.209462   1.079551   3.286564   2.684810   2.210289
     9  H    2.270048   2.644098   1.291490   3.141487   2.146777
    10  H    3.298389   2.227613   3.244840   4.319285   1.079938
                    6          7          8          9         10
     6  N    0.000000
     7  H    2.188310   0.000000
     8  H    3.312310   4.306456   0.000000
     9  H    1.273075   1.883956   3.661944   0.000000
    10  H    2.107142   4.196292   2.694934   2.942170   0.000000
 Symmetry turned off by external request.
 Stoichiometry    C4H5N
 Framework group  C1[X(C4H5N)]
 Deg. of freedom    24
 Full point group                 C1      NOp   1
 Rotational constants (GHZ):           9.2003193           8.8481540           4.5982695
 1\1\GINC-BHC0029\FTS\RB3LYP\def2TZVP\C4H5N1\DHANAWAY\10-Jun-2022\1\\# 
 Opt=(TS, CalcFC, noeigentest, Z-matrix, MaxStep=10) Field=read NoSymm 
 B3LYP/Def2TZVP freq=noraman pop=none\\ts_zmat_initalOpt\\0,1\C\C,1,R2\
 C,1,R3,2,A3\H,1,R4,2,A4,3,D4,0\C,2,R5,1,A5,3,D5,0\N,3,R6,1,A6,2,D6,0\H
 ,3,R7,1,A7,6,D7,0\H,2,R8,1,A8,5,D8,0\H,3,R9,1,A9,6,D9,0\H,5,R10,2,A10,
 1,D10,0\\R2=1.39183525\R3=1.39946195\R4=1.07837836\R5=1.39477085\R6=1.
 45579709\R7=1.07919787\R8=1.07955097\R9=1.29148988\R10=1.07993792\A3=1
 06.64816306\A4=127.31880247\A5=107.56251139\A6=109.31264331\A7=129.648
 63533\A8=126.30046371\A9=114.98264004\A10=127.90136036\D4=179.78970939
 \D5=0.93575146\D6=1.22539231\D7=161.6997068\D8=178.04502089\D9=-59.318
 77222\D10=174.4986148\\Version=ES64L-G16RevA.03\HF=-210.1772561\RMSD=3
 .638e-09\RMSF=6.103e-05\Dipole=-0.5800925,0.2791332,-0.3115975\PG=C01 
 [X(C4H5N1)]\\@


 WHEN HAVING A MEETING OF THE MINDS,
 MAKE SURE YOU HAVE THE EQUIPMENT FOR IT.
 Job cpu time:       0 days  0 hours 20 minutes 16.1 seconds.
 Elapsed time:       0 days  0 hours  1 minutes 47.7 seconds.
 File lengths (MBytes):  RWF=     34 Int=      0 D2E=      0 Chk=     32 Scr=      1
 Normal termination of Gaussian 16 at Fri Jun 10 11:08:52 2022.
 Link1:  Proceeding to internal job step number  2.
 --------------------------------------------------------------------
 #N Geom=AllCheck Guess=TCheck SCRF=Check GenChk RB3LYP/def2TZVP Freq
 --------------------------------------------------------------------
 1/5=1,8=10,10=4,11=1,29=7,30=1,38=1,40=1/1,3;
 2/12=2,15=1,40=1/2;
 3/5=44,7=101,11=2,14=-4,25=1,30=1,70=2,71=2,74=-5,116=1,140=1/1,2,3;
 4/5=101/1;
 5/5=2,38=6,98=1/2;
 8/6=4,10=90,11=11/1;
 11/6=1,8=1,9=11,15=111,16=1,31=1/1,2,10;
 10/6=1,31=1/2;
 7/8=1,10=1,25=1,30=1/1,2,3,16;
 1/5=1,8=10,10=4,11=1,30=1/3;
 99//99;
 Structure from the checkpoint file:  "checkpoint.chk"
 -----------------
 ts_zmat_initalOpt
 -----------------
 Charge =  0 Multiplicity = 1
 Z-Matrix found in chk file.
 C
 C,1,R2
 C,1,R3,2,A3
 H,1,R4,2,A4,3,D4,0
 C,2,R5,1,A5,3,D5,0
 N,3,R6,1,A6,2,D6,0
 H,3,R7,1,A7,6,D7,0
 H,2,R8,1,A8,5,D8,0
 H,3,R9,1,A9,6,D9,0
 H,5,R10,2,A10,1,D10,0
      Variables:
 R2=1.39183525
 R3=1.39946195
 R4=1.07837836
 R5=1.39477085
 R6=1.45579709
 R7=1.07919787
 R8=1.07955097
 R9=1.29148988
 R10=1.07993792
 A3=106.64816306
 A4=127.31880247
 A5=107.56251139
 A6=109.31264331
 A7=129.64863533
 A8=126.30046371
 A9=114.98264004
 A10=127.90136036
 D4=179.78970939
 D5=0.93575146
 D6=1.22539231
 D7=161.6997068
 D8=178.04502089
 D9=-59.31877222
 D10=174.4986148
 Recover connectivity data from disk.

 GradGradGradGradGradGradGradGradGradGradGradGradGradGradGradGradGradGrad
 Berny optimization.
 Initialization pass.
                       ----------------------------
                       !    Initial Parameters    !
                       ! (Angstroms and Degrees)  !
 ----------------------                            ----------------------
 !      Name          Value   Derivative information (Atomic Units)     !
 ------------------------------------------------------------------------
 !       R2          1.3918   calculate D2E/DX2 analytically            !
 !       R3          1.3995   calculate D2E/DX2 analytically            !
 !       R4          1.0784   calculate D2E/DX2 analytically            !
 !       R5          1.3948   calculate D2E/DX2 analytically            !
 !       R6          1.4558   calculate D2E/DX2 analytically            !
 !       R7          1.0792   calculate D2E/DX2 analytically            !
 !       R8          1.0796   calculate D2E/DX2 analytically            !
 !       R9          1.2915   calculate D2E/DX2 analytically            !
 !       R10         1.0799   calculate D2E/DX2 analytically            !
 !       A3        106.6482   calculate D2E/DX2 analytically            !
 !       A4        127.3188   calculate D2E/DX2 analytically            !
 !       A5        107.5625   calculate D2E/DX2 analytically            !
 !       A6        109.3126   calculate D2E/DX2 analytically            !
 !       A7        129.6486   calculate D2E/DX2 analytically            !
 !       A8        126.3005   calculate D2E/DX2 analytically            !
 !       A9        114.9826   calculate D2E/DX2 analytically            !
 !       A10       127.9014   calculate D2E/DX2 analytically            !
 !       D4        179.7897   calculate D2E/DX2 analytically            !
 !       D5          0.9358   calculate D2E/DX2 analytically            !
 !       D6          1.2254   calculate D2E/DX2 analytically            !
 !       D7        161.6997   calculate D2E/DX2 analytically            !
 !       D8        178.045    calculate D2E/DX2 analytically            !
 !       D9        -59.3188   calculate D2E/DX2 analytically            !
 !       D10       174.4986   calculate D2E/DX2 analytically            !
 ------------------------------------------------------------------------
 Trust Radius=1.00D-01 FncErr=1.00D-07 GrdErr=1.00D-07 EigMax=2.50D+02 EigMin=1.00D-04
 Number of steps in this run=      2 maximum allowed number of steps=      2.
 Search for a saddle point of order  1.
 GradGradGradGradGradGradGradGradGradGradGradGradGradGradGradGradGradGrad

                          Input orientation:                          
 ---------------------------------------------------------------------
 Center     Atomic      Atomic             Coordinates (Angstroms)
 Number     Number       Type             X           Y           Z
 ---------------------------------------------------------------------
      1          6           0        0.000000    0.000000    0.000000
      2          6           0        0.000000    0.000000    1.391835
      3          6           0        1.340799    0.000000   -0.400937
      4          1           0       -0.857601   -0.003148   -0.653766
      5          6           0        1.329581    0.021717    1.812702
      6          7           0        2.195600   -0.029381    0.777111
      7          1           0        1.772977   -0.243985   -1.359249
      8          1           0       -0.869898    0.015476    2.030951
      9          1           0        2.040651    0.993779    0.035591
     10          1           0        1.704737    0.109550    2.821567
 ---------------------------------------------------------------------
                    Distance matrix (angstroms):
                    1          2          3          4          5
     1  C    0.000000
     2  C    1.391835   0.000000
     3  C    1.399462   2.238700   0.000000
     4  H    1.078378   2.218102   2.212893   0.000000
     5  C    2.248143   1.394771   2.213774   3.296642   0.000000
     6  N    2.329254   2.280221   1.455797   3.371963   1.350943
     7  H    2.247340   3.281987   1.079198   2.734164   3.213794
     8  H    2.209462   1.079551   3.286564   2.684810   2.210289
     9  H    2.270048   2.644098   1.291490   3.141487   2.146777
    10  H    3.298389   2.227613   3.244840   4.319285   1.079938
                    6          7          8          9         10
     6  N    0.000000
     7  H    2.188310   0.000000
     8  H    3.312310   4.306456   0.000000
     9  H    1.273075   1.883956   3.661944   0.000000
    10  H    2.107142   4.196292   2.694934   2.942170   0.000000
 Symmetry turned off by external request.
 Stoichiometry    C4H5N
 Framework group  C1[X(C4H5N)]
 Deg. of freedom    24
 Full point group                 C1      NOp   1
 Rotational constants (GHZ):           9.2003193           8.8481540           4.5982695
 Standard basis: def2TZVP (5D, 7F)
 The following finite field(s) will be applied:
 An electric field of              0.0020 -0.0005  0.0015
   185 basis functions,   295 primitive gaussians,   210 cartesian basis functions
    18 alpha electrons       18 beta electrons
       nuclear repulsion energy       160.5720996704 Hartrees.
 NAtoms=   10 NActive=   10 NUniq=   10 SFac= 1.00D+00 NAtFMM=   60 NAOKFM=F Big=F
 Integral buffers will be    131072 words long.
 Raffenetti 2 integral format.
 Two-electron integral symmetry is turned off.
 One-electron integrals computed using PRISM.
   1 Symmetry operations used in ECPInt.
 ECPInt:  NShTT=    2850 NPrTT=    8640 LenC2=    2843 LenP2D=    7479.
 LDataN:  DoStor=T MaxTD1= 6 Len=  172
 NBasis=   185 RedAO= T EigKep=  5.71D-05  NBF=   185
 NBsUse=   185 1.00D-06 EigRej= -1.00D+00 NBFU=   185
 The nuclear repulsion energy is now       160.7720973781 hartrees.
 Initial guess from the checkpoint file:  "checkpoint.chk"
 B after Tr=     0.000000    0.000000    0.000000
         Rot=    1.000000    0.000000    0.000000    0.000000 Ang=   0.00 deg.
 Keep R1 ints in memory in canonical form, NReq=160464061.
 Requested convergence on RMS density matrix=1.00D-08 within 128 cycles.
 Requested convergence on MAX density matrix=1.00D-06.
 Requested convergence on             energy=1.00D-06.
 No special actions if energy rises.
 SCF Done:  E(RB3LYP) =  -210.177256135     A.U. after    1 cycles
            NFock=  1  Conv=0.17D-08     -V/T= 2.0051
 DoSCS=F DFT=T ScalE2(SS,OS)=  1.000000  1.000000
 Range of M.O.s used for correlation:     1   185
 NBasis=   185 NAE=    18 NBE=    18 NFC=     0 NFV=     0
 NROrb=    185 NOA=    18 NOB=    18 NVA=   167 NVB=   167

 **** Warning!!: The largest alpha MO coefficient is  0.25361282D+02

   1 Symmetry operations used in ECPInt.
 ECPInt:  NShTT=    2850 NPrTT=    8640 LenC2=    2843 LenP2D=    7479.
 LDataN:  DoStor=T MaxTD1= 7 Len=  274
 Symmetrizing basis deriv contribution to polar:
 IMax=3 JMax=2 DiffMx= 0.00D+00
 G2DrvN: will do    11 centers at a time, making    1 passes.
 Calling FoFCou, ICntrl=  3107 FMM=F I1Cent=   0 AccDes= 0.00D+00.
 End of G2Drv F.D. properties file   721 does not exist.
 End of G2Drv F.D. properties file   722 does not exist.
 End of G2Drv F.D. properties file   788 does not exist.
          IDoAtm=1111111111
          Differentiating once with respect to electric field.
                with respect to dipole field.
          Differentiating once with respect to nuclear coordinates.
 Keep R1 ints in memory in canonical form, NReq=160431867.
          There are    33 degrees of freedom in the 1st order CPHF.  IDoFFX=6 NUNeed=     3.
     30 vectors produced by pass  0 Test12= 9.11D-15 3.03D-09 XBig12= 6.35D+01 4.74D+00.
 AX will form    30 AO Fock derivatives at one time.
     30 vectors produced by pass  1 Test12= 9.11D-15 3.03D-09 XBig12= 1.59D+01 6.71D-01.
     30 vectors produced by pass  2 Test12= 9.11D-15 3.03D-09 XBig12= 1.47D-01 7.93D-02.
     30 vectors produced by pass  3 Test12= 9.11D-15 3.03D-09 XBig12= 6.55D-04 4.01D-03.
     30 vectors produced by pass  4 Test12= 9.11D-15 3.03D-09 XBig12= 1.27D-06 1.44D-04.
     24 vectors produced by pass  5 Test12= 9.11D-15 3.03D-09 XBig12= 3.02D-09 6.25D-06.
      7 vectors produced by pass  6 Test12= 9.11D-15 3.03D-09 XBig12= 4.51D-12 2.76D-07.
      2 vectors produced by pass  7 Test12= 9.11D-15 3.03D-09 XBig12= 4.55D-15 9.74D-09.
 InvSVY:  IOpt=1 It=  1 EMax= 1.07D-14
 Solved reduced A of dimension   183 with    33 vectors.
 Isotropic polarizability for W=    0.000000       50.51 Bohr**3.
 End of Minotr F.D. properties file   721 does not exist.
 End of Minotr F.D. properties file   722 does not exist.
 End of Minotr F.D. properties file   788 does not exist.
   1 Symmetry operations used in ECPInt.
 ECPInt:  NShTT=    2850 NPrTT=    8640 LenC2=    2843 LenP2D=    7479.
 LDataN:  DoStor=T MaxTD1= 8 Len=  415
 Calling FoFJK, ICntrl=    100127 FMM=F ISym2X=0 I1Cent= 0 IOpClX= 0 NMat=1 NMatS=1 NMatT=0.
 Full mass-weighted force constant matrix:
 Low frequencies ----1493.3513   -7.7744   -0.0009   -0.0007   -0.0004    8.1482
 Low frequencies ---   14.6968  588.5658  639.8040
 ******    1 imaginary frequencies (negative Signs) ****** 
 Diagonal vibrational polarizability:
        3.1401375       5.2288394       1.2416100
 Harmonic frequencies (cm**-1), IR intensities (KM/Mole), Raman scattering
 activities (A**4/AMU), depolarization ratios for plane and unpolarized
 incident light, reduced masses (AMU), force constants (mDyne/A),
 and normal coordinates:
                      1                      2                      3
                      A                      A                      A
 Frequencies --  -1493.3511               588.5657               639.8040
 Red. masses --      1.2124                 2.2284                 3.8487
 Frc consts  --      1.5930                 0.4548                 0.9282
 IR Inten    --    106.6462                 2.6173                 3.4939
  Atom  AN      X      Y      Z        X      Y      Z        X      Y      Z
     1   6     0.02  -0.00  -0.03     0.00  -0.19  -0.01    -0.00   0.15  -0.01
     2   6     0.02   0.00   0.02     0.00   0.22   0.00     0.00  -0.01  -0.00
     3   6    -0.06  -0.06  -0.01    -0.00   0.05  -0.00    -0.00  -0.31   0.02
     4   1     0.01  -0.00  -0.01    -0.00  -0.28  -0.00     0.01   0.54  -0.03
     5   6    -0.04   0.01   0.02     0.00  -0.15   0.01    -0.01  -0.18   0.01
     6   7    -0.00   0.05  -0.06     0.01   0.04  -0.01     0.03   0.30  -0.01
     7   1     0.01   0.16  -0.03     0.10   0.40  -0.05     0.05  -0.33   0.05
     8   1     0.01  -0.01   0.01     0.00   0.56  -0.01     0.01   0.13   0.00
     9   1     0.61  -0.15   0.75    -0.34   0.16   0.22    -0.43   0.08  -0.13
    10   1    -0.00  -0.01   0.00     0.02  -0.36   0.02    -0.03  -0.36   0.03
                      4                      5                      6
                      A                      A                      A
 Frequencies --    750.6813               844.5679               868.5836
 Red. masses --      1.1352                 1.4316                 1.7535
 Frc consts  --      0.3769                 0.6016                 0.7795
 IR Inten    --     91.0286                 6.6194                17.2185
  Atom  AN      X      Y      Z        X      Y      Z        X      Y      Z
     1   6    -0.01  -0.04  -0.01    -0.03   0.04  -0.00    -0.07   0.10  -0.03
     2   6     0.01  -0.08  -0.00    -0.01  -0.01  -0.02    -0.01   0.03  -0.03
     3   6    -0.01  -0.03  -0.01    -0.03   0.05   0.01    -0.05  -0.10   0.08
     4   1    -0.02   0.57   0.00    -0.01  -0.35  -0.03     0.01  -0.51  -0.14
     5   6    -0.00   0.03  -0.00     0.00  -0.15  -0.02     0.00   0.03  -0.05
     6   7     0.03  -0.04   0.01     0.07   0.03   0.02     0.14  -0.03   0.04
     7   1     0.03   0.44  -0.11    -0.13  -0.33   0.07    -0.14   0.60  -0.13
     8   1     0.02   0.37  -0.00     0.04   0.29   0.04     0.07  -0.38   0.08
     9   1    -0.27   0.03   0.15     0.15  -0.01   0.04    -0.28  -0.01   0.08
    10   1    -0.04   0.46  -0.03    -0.14   0.76  -0.04    -0.13   0.01   0.00
                      7                      8                      9
                      A                      A                      A
 Frequencies --    881.4225               890.3071               939.5304
 Red. masses --      2.7075                 3.8363                 1.5513
 Frc consts  --      1.2393                 1.7916                 0.8068
 IR Inten    --      6.2726                 4.2021                 3.5179
  Atom  AN      X      Y      Z        X      Y      Z        X      Y      Z
     1   6     0.20   0.09   0.12    -0.05   0.08  -0.14     0.03   0.09   0.01
     2   6    -0.10   0.02   0.13     0.26   0.01  -0.12     0.01  -0.14   0.02
     3   6     0.11  -0.07  -0.11    -0.06  -0.04  -0.06    -0.02  -0.00  -0.10
     4   1     0.23  -0.41   0.09    -0.29  -0.36   0.17    -0.04  -0.45   0.10
     5   6    -0.07  -0.05  -0.00     0.11  -0.03   0.25    -0.03   0.08   0.02
     6   7    -0.13  -0.01  -0.09    -0.22  -0.01   0.05     0.03  -0.01   0.04
     7   1     0.05   0.34  -0.24     0.30   0.15   0.05    -0.06  -0.03  -0.11
     8   1    -0.24  -0.20  -0.07     0.13  -0.14  -0.29    -0.01   0.74  -0.02
     9   1    -0.29   0.07   0.01    -0.30   0.04   0.08    -0.07  -0.04   0.03
    10   1     0.19   0.44  -0.14     0.18   0.32   0.20    -0.06  -0.39   0.07
                     10                     11                     12
                      A                      A                      A
 Frequencies --    954.7373              1065.8935              1090.5644
 Red. masses --      2.6521                 1.3735                 1.2485
 Frc consts  --      1.4243                 0.9194                 0.8749
 IR Inten    --     36.1368                10.2664                 1.3861
  Atom  AN      X      Y      Z        X      Y      Z        X      Y      Z
     1   6    -0.03   0.05  -0.04    -0.06   0.02  -0.01    -0.05   0.01   0.07
     2   6    -0.01  -0.09  -0.01     0.03   0.00   0.04    -0.04  -0.01  -0.06
     3   6     0.06  -0.01   0.29     0.09  -0.01  -0.05     0.05  -0.02   0.05
     4   1     0.28  -0.24  -0.43    -0.22  -0.05   0.20    -0.42  -0.06   0.55
     5   6     0.06   0.03  -0.06    -0.05  -0.00  -0.10     0.02  -0.01  -0.04
     6   7    -0.14  -0.01  -0.13    -0.04  -0.00   0.03     0.03   0.01  -0.01
     7   1     0.20   0.12   0.32     0.53   0.04   0.13     0.28   0.19   0.10
     8   1     0.10   0.48   0.13     0.42  -0.04   0.58    -0.31   0.07  -0.43
     9   1     0.04   0.12  -0.03     0.01  -0.00   0.06     0.23  -0.04  -0.09
    10   1     0.30  -0.05  -0.15    -0.23   0.02  -0.04     0.11   0.01  -0.08
                     13                     14                     15
                      A                      A                      A
 Frequencies --   1135.7113              1174.3475              1252.6021
 Red. masses --      2.2284                 1.1411                 1.7411
 Frc consts  --      1.6935                 0.9272                 1.6095
 IR Inten    --      2.7104                24.6010                 1.5422
  Atom  AN      X      Y      Z        X      Y      Z        X      Y      Z
     1   6    -0.13   0.01  -0.11     0.01   0.02   0.00     0.04  -0.00   0.00
     2   6    -0.17  -0.01   0.11    -0.00  -0.00   0.01     0.01   0.00  -0.07
     3   6     0.03  -0.00  -0.12    -0.02   0.03   0.01    -0.02  -0.00   0.01
     4   1     0.04  -0.01  -0.37    -0.05  -0.01   0.08    -0.06   0.01   0.14
     5   6     0.10  -0.00   0.09    -0.01   0.04  -0.03     0.00  -0.01  -0.14
     6   7     0.07   0.00   0.05     0.05  -0.05  -0.05    -0.06   0.02   0.17
     7   1     0.44   0.00   0.05     0.22  -0.43   0.25    -0.34  -0.08  -0.10
     8   1    -0.20  -0.01   0.11    -0.12  -0.11  -0.16     0.14  -0.02   0.09
     9   1     0.07  -0.06   0.02    -0.53   0.18   0.56    -0.06  -0.02   0.27
    10   1     0.69   0.04  -0.12     0.01  -0.01  -0.03     0.71  -0.01  -0.42
                     16                     17                     18
                      A                      A                      A
 Frequencies --   1312.5895              1430.8336              1482.9109
 Red. masses --      1.8686                 2.8568                 3.1785
 Frc consts  --      1.8968                 3.4460                 4.1181
 IR Inten    --      2.5617                 7.1834                 3.3536
  Atom  AN      X      Y      Z        X      Y      Z        X      Y      Z
     1   6     0.02   0.00   0.11    -0.16   0.01   0.16    -0.14  -0.00  -0.14
     2   6     0.06   0.01   0.01    -0.07  -0.00  -0.12     0.19   0.00   0.28
     3   6    -0.15  -0.00  -0.05     0.19  -0.03  -0.07     0.14   0.00   0.02
     4   1     0.40   0.00  -0.38     0.14  -0.01  -0.26    -0.14  -0.00  -0.20
     5   6     0.07  -0.01  -0.13     0.20   0.02  -0.02    -0.06  -0.01  -0.13
     6   7    -0.04   0.01   0.09    -0.09   0.01   0.03    -0.04   0.00   0.05
     7   1     0.55   0.12   0.24    -0.36  -0.12  -0.32    -0.35  -0.05  -0.21
     8   1    -0.19  -0.02  -0.34    -0.00  -0.00  -0.01    -0.44   0.00  -0.57
     9   1     0.08  -0.16  -0.07    -0.01   0.15   0.51     0.02   0.08   0.03
    10   1    -0.24   0.00  -0.03    -0.40  -0.05   0.23    -0.18  -0.01  -0.11
                     19                     20                     21
                      A                      A                      A
 Frequencies --   1510.2695              2182.4575              3211.8486
 Red. masses --      3.5321                 1.0725                 1.0888
 Frc consts  --      4.7467                 3.0097                 6.6176
 IR Inten    --      1.4728                14.0846                 4.4033
  Atom  AN      X      Y      Z        X      Y      Z        X      Y      Z
     1   6     0.18  -0.00  -0.22     0.01   0.00   0.00     0.01   0.00   0.01
     2   6    -0.17   0.00   0.11     0.00  -0.00   0.00    -0.04   0.00   0.03
     3   6    -0.09  -0.01   0.05    -0.04  -0.05  -0.02     0.00  -0.00  -0.01
     4   1    -0.33  -0.00   0.43     0.01   0.00   0.00    -0.13  -0.00  -0.10
     5   6     0.28   0.00  -0.09    -0.01   0.00  -0.00    -0.02  -0.01  -0.07
     6   7    -0.08   0.00   0.06     0.01  -0.03   0.02    -0.00   0.00  -0.00
     7   1    -0.15   0.02   0.05     0.04   0.00  -0.01    -0.05   0.03   0.10
     8   1    -0.17  -0.01   0.19     0.00   0.01   0.00     0.44  -0.01  -0.33
     9   1    -0.03   0.00   0.07     0.27   0.96  -0.06     0.00   0.00   0.00
    10   1    -0.57  -0.01   0.24     0.01   0.01  -0.01     0.28   0.06   0.75
                     22                     23                     24
                      A                      A                      A
 Frequencies --   3226.7798              3230.6533              3247.9470
 Red. masses --      1.0926                 1.0955                 1.1043
 Frc consts  --      6.7025                 6.7368                 6.8634
 IR Inten    --      4.3567                 4.2322                 0.7196
  Atom  AN      X      Y      Z        X      Y      Z        X      Y      Z
     1   6     0.04   0.00   0.03    -0.00  -0.00   0.01    -0.06  -0.00  -0.05
     2   6    -0.03   0.00   0.02     0.05  -0.00  -0.03    -0.03   0.00   0.02
     3   6     0.02  -0.01  -0.04     0.03  -0.01  -0.05     0.02  -0.01  -0.04
     4   1    -0.44  -0.00  -0.34    -0.03   0.00  -0.03     0.65   0.00   0.49
     5   6     0.02   0.00   0.04    -0.01  -0.00  -0.03     0.01   0.00   0.01
     6   7     0.00  -0.00  -0.00    -0.00  -0.00   0.00     0.00  -0.00   0.00
     7   1    -0.22   0.13   0.50    -0.28   0.16   0.61    -0.18   0.10   0.39
     8   1     0.32  -0.01  -0.23    -0.51   0.01   0.38     0.28  -0.00  -0.21
     9   1     0.00   0.01  -0.01     0.00   0.01  -0.00     0.00   0.00  -0.00
    10   1    -0.16  -0.04  -0.43     0.12   0.03   0.31    -0.05  -0.01  -0.13

 -------------------
 - Thermochemistry -
 -------------------
 Temperature   298.150 Kelvin.  Pressure   1.00000 Atm.
 Atom     1 has atomic number  6 and mass  12.00000
 Atom     2 has atomic number  6 and mass  12.00000
 Atom     3 has atomic number  6 and mass  12.00000
 Atom     4 has atomic number  1 and mass   1.00783
 Atom     5 has atomic number  6 and mass  12.00000
 Atom     6 has atomic number  7 and mass  14.00307
 Atom     7 has atomic number  1 and mass   1.00783
 Atom     8 has atomic number  1 and mass   1.00783
 Atom     9 has atomic number  1 and mass   1.00783
 Atom    10 has atomic number  1 and mass   1.00783
 Molecular mass:    67.04220 amu.
 Principal axes and moments of inertia in atomic units:
                           1         2         3
     Eigenvalues --   196.16071 203.96810 392.48270
           X            0.96864  -0.24828  -0.00915
           Y            0.01050   0.00410   0.99994
           Z            0.24823   0.96868  -0.00658
 This molecule is an asymmetric top.
 Rotational symmetry number  1.
 Rotational temperatures (Kelvin)      0.44155     0.42464     0.22068
 Rotational constants (GHZ):           9.20032     8.84815     4.59827
    1 imaginary frequencies ignored.
 Zero-point vibrational energy     202848.4 (Joules/Mol)
                                   48.48194 (Kcal/Mol)
 Warning -- explicit consideration of   1 degrees of freedom as
           vibrations may cause significant error
 Vibrational temperatures:    846.81   920.54  1080.06  1215.14  1249.70
          (Kelvin)           1268.17  1280.95  1351.77  1373.65  1533.58
                             1569.08  1634.04  1689.62  1802.22  1888.52
                             2058.65  2133.58  2172.94  3140.07  4621.13
                             4642.62  4648.19  4673.07
 
 Zero-point correction=                           0.077261 (Hartree/Particle)
 Thermal correction to Energy=                    0.080960
 Thermal correction to Enthalpy=                  0.081904
 Thermal correction to Gibbs Free Energy=         0.050976
 Sum of electronic and zero-point Energies=           -210.099995
 Sum of electronic and thermal Energies=              -210.096296
 Sum of electronic and thermal Enthalpies=            -210.095352
 Sum of electronic and thermal Free Energies=         -210.126280
 
                     E (Thermal)             CV                S
                      KCal/Mol        Cal/Mol-Kelvin    Cal/Mol-Kelvin
 Total                   50.803             13.383             65.094
 Electronic               0.000              0.000              0.000
 Translational            0.889              2.981             38.526
 Rotational               0.889              2.981             24.266
 Vibrational             49.026              7.422              2.302
 Vibration     1          0.946              1.056              0.470
                       Q            Log10(Q)             Ln(Q)
 Total Bot       0.357078D-23        -23.447237        -53.989259
 Total V=0       0.123104D+13         12.090271         27.838878
 Vib (Bot)       0.368929D-35        -35.433057        -81.587628
 Vib (Bot)    1  0.256679D+00         -0.590609         -1.359928
 Vib (V=0)       0.127190D+01          0.104452          0.240509
 Vib (V=0)    1  0.106204D+01          0.026139          0.060188
 Electronic      0.100000D+01          0.000000          0.000000
 Translational   0.215763D+08          7.333976         16.887104
 Rotational      0.448583D+05          4.651843         10.711264
 -------------------------------------------------------------------
 Center     Atomic                   Forces (Hartrees/Bohr)
 Number     Number              X              Y              Z
 -------------------------------------------------------------------
      1        6           0.000096086   -0.000248897    0.000001159
      2        6          -0.000099096    0.000137813    0.000000016
      3        6           0.000001533    0.000107457   -0.000007064
      4        1          -0.000000121    0.000000224   -0.000000005
      5        6           0.000004331   -0.000000229   -0.000001863
      6        7          -0.000003518    0.000001967    0.000009655
      7        1          -0.000001674    0.000001169   -0.000002046
      8        1          -0.000000144    0.000000118   -0.000000008
      9        1           0.000002482    0.000000972   -0.000000104
     10        1           0.000000121   -0.000000593    0.000000260
 -------------------------------------------------------------------
 Cartesian Forces:  Max     0.000248897 RMS     0.000061031
 -----------------------------------------------------------------------------------------------
                       Internal Coordinate Forces (Hartree/Bohr or radian)
  Cent   Atom   N1       Length/X         N2         Alpha/Y        N3         Beta/Z          J
 -----------------------------------------------------------------------------------------------
      1  C 
      2  C        1  -0.000002(     1)
      3  C        1  -0.000001(     2)      2  -0.000017(    10)
      4  H        1   0.000000(     3)      2  -0.000000(    11)      3   0.000000(    18)     0
      5  C        2   0.000004(     4)      1  -0.000008(    12)      3  -0.000003(    19)     0
      6  N        3   0.000006(     5)      1  -0.000023(    13)      2  -0.000003(    20)     0
      7  H        3   0.000001(     6)      1  -0.000004(    14)      6   0.000003(    21)     0
      8  H        2   0.000000(     7)      1  -0.000000(    15)      5  -0.000000(    22)     0
      9  H        3   0.000002(     8)      1   0.000004(    16)      6   0.000000(    23)     0
     10  H        5   0.000000(     9)      2   0.000000(    17)      1   0.000001(    24)     0
 -----------------------------------------------------------------------------------------------
 Internal  Forces:  Max     0.000023393 RMS     0.000006459

 GradGradGradGradGradGradGradGradGradGradGradGradGradGradGradGradGradGrad
 Berny optimization.
 Search for a saddle point.
 Step number   1 out of a maximum of    2
 All quantities printed in internal units (Hartrees-Bohrs-Radians)
 Swapping is turned off.
 Second derivative matrix not updated -- analytic derivatives used.
 ITU=  0
     Eigenvalues ---   -0.26353   0.03362   0.04753   0.05320   0.06387
     Eigenvalues ---    0.12880   0.17251   0.18512   0.19888   0.21515
     Eigenvalues ---    0.24036   0.25045   0.29163   0.35333   0.36142
     Eigenvalues ---    0.36490   0.36780   0.37016   0.40729   0.47599
     Eigenvalues ---    0.59158   1.52368   2.16717  13.95984
 Eigenvectors required to have negative eigenvalues:
                          D9        R9        A9        D7        R6
   1                    0.75262   0.52828   0.20770   0.16033  -0.15539
                          R3        R5        R2        A6        A10
   1                   -0.14817  -0.11849   0.11786   0.08662   0.04188
 Angle between quadratic step and forces=  66.73 degrees.
 Linear search not attempted -- option 19 set.
 Variable       Old X    -DE/DX   Delta X   Delta X   Delta X     New X
                                 (Linear)    (Quad)   (Total)
    R2        2.63019  -0.00000   0.00000  -0.00000  -0.00000   2.63018
    R3        2.64460  -0.00000   0.00000   0.00001   0.00001   2.64461
    R4        2.03784   0.00000   0.00000   0.00000   0.00000   2.03784
    R5        2.63573   0.00000   0.00000   0.00001   0.00001   2.63574
    R6        2.75106   0.00001   0.00000   0.00002   0.00002   2.75108
    R7        2.03939   0.00000   0.00000   0.00000   0.00000   2.03939
    R8        2.04006   0.00000   0.00000   0.00000   0.00000   2.04006
    R9        2.44056   0.00000   0.00000   0.00001   0.00001   2.44057
   R10        2.04079   0.00000   0.00000   0.00000   0.00000   2.04079
    A3        1.86136  -0.00002   0.00000   0.00001   0.00001   1.86137
    A4        2.22213  -0.00000   0.00000  -0.00000  -0.00000   2.22213
    A5        1.87732  -0.00001   0.00000  -0.00000  -0.00000   1.87732
    A6        1.90787  -0.00002   0.00000  -0.00001  -0.00001   1.90785
    A7        2.26280  -0.00000   0.00000  -0.00001  -0.00001   2.26278
    A8        2.20436  -0.00000   0.00000  -0.00000  -0.00000   2.20436
    A9        2.00683   0.00000   0.00000   0.00001   0.00001   2.00683
   A10        2.23230   0.00000   0.00000  -0.00000  -0.00000   2.23230
    D4        3.13792   0.00000   0.00000   0.00001   0.00001   3.13793
    D5        0.01633  -0.00000   0.00000  -0.00000  -0.00000   0.01633
    D6        0.02139  -0.00000   0.00000   0.00000   0.00000   0.02139
    D7        2.82219   0.00000   0.00000   0.00002   0.00002   2.82221
    D8        3.10747  -0.00000   0.00000   0.00000   0.00000   3.10748
    D9       -1.03531   0.00000   0.00000   0.00000   0.00000  -1.03530
   D10        3.04558   0.00000   0.00000   0.00002   0.00002   3.04559
         Item               Value     Threshold  Converged?
 Maximum Force            0.000023     0.000450     YES
 RMS     Force            0.000006     0.000300     YES
 Maximum Displacement     0.000021     0.001800     YES
 RMS     Displacement     0.000009     0.001200     YES
 Predicted change in Energy=-2.642892D-10
 Optimization completed.
    -- Stationary point found.
                       ----------------------------
                       !   Optimized Parameters   !
                       ! (Angstroms and Degrees)  !
 ----------------------                            ----------------------
 !      Name          Value   Derivative information (Atomic Units)     !
 ------------------------------------------------------------------------
 !       R2          1.3918   -DE/DX =    0.0                           !
 !       R3          1.3995   -DE/DX =    0.0                           !
 !       R4          1.0784   -DE/DX =    0.0                           !
 !       R5          1.3948   -DE/DX =    0.0                           !
 !       R6          1.4558   -DE/DX =    0.0                           !
 !       R7          1.0792   -DE/DX =    0.0                           !
 !       R8          1.0796   -DE/DX =    0.0                           !
 !       R9          1.2915   -DE/DX =    0.0                           !
 !       R10         1.0799   -DE/DX =    0.0                           !
 !       A3        106.6482   -DE/DX =    0.0                           !
 !       A4        127.3188   -DE/DX =    0.0                           !
 !       A5        107.5625   -DE/DX =    0.0                           !
 !       A6        109.3126   -DE/DX =    0.0                           !
 !       A7        129.6486   -DE/DX =    0.0                           !
 !       A8        126.3005   -DE/DX =    0.0                           !
 !       A9        114.9826   -DE/DX =    0.0                           !
 !       A10       127.9014   -DE/DX =    0.0                           !
 !       D4        179.7897   -DE/DX =    0.0                           !
 !       D5          0.9358   -DE/DX =    0.0                           !
 !       D6          1.2254   -DE/DX =    0.0                           !
 !       D7        161.6997   -DE/DX =    0.0                           !
 !       D8        178.045    -DE/DX =    0.0                           !
 !       D9        -59.3188   -DE/DX =    0.0                           !
 !       D10       174.4986   -DE/DX =    0.0                           !
 ------------------------------------------------------------------------
 GradGradGradGradGradGradGradGradGradGradGradGradGradGradGradGradGradGrad


 ----------------------------------------------------------------------

 Electric dipole moment (input orientation):
 (Debye = 10**-18 statcoulomb cm , SI units = C m)
                  (au)            (Debye)         (10**-30 SI)
   Tot        0.715204D+00      0.181787D+01      0.606376D+01
   x         -0.580094D+00     -0.147445D+01     -0.491824D+01
   y          0.279133D+00      0.709487D+00      0.236659D+01
   z         -0.311598D+00     -0.792003D+00     -0.264184D+01

 Dipole polarizability, Alpha (input orientation).
 (esu units = cm**3 , SI units = C**2 m**2 J**-1)
 Alpha(0;0):
               (au)            (10**-24 esu)      (10**-40 SI)
   iso        0.505105D+02      0.748489D+01      0.832806D+01
   aniso      0.247738D+02      0.367110D+01      0.408465D+01
   xx         0.567275D+02      0.840615D+01      0.935311D+01
   yx         0.184515D+01      0.273423D+00      0.304225D+00
   yy         0.343180D+02      0.508541D+01      0.565828D+01
   zx        -0.641015D+00     -0.949887D-01     -0.105689D+00
   zy        -0.765070D+00     -0.113372D+00     -0.126143D+00
   zz         0.604860D+02      0.896311D+01      0.997280D+01

 ----------------------------------------------------------------------

 Dipole orientation:
     6          0.00000000         -0.00000000          0.00000000
     6         -2.13331319         -1.02652249         -1.14591112
     6          1.98724792         -0.26296664         -1.72499344
     1          0.12272149          0.84482676          1.85040483
     6         -1.40810911         -1.92760538         -3.51429184
     7          1.04451969         -1.43835276         -4.02674276
     1          3.79688963          0.67589080         -1.77836684
     1         -3.99706490         -1.16157301         -0.32736480
     1          2.44875642         -2.55524875         -2.42413312
     1         -2.53374745         -2.97636258         -4.85513404

 Electric dipole moment (dipole orientation):
 (Debye = 10**-18 statcoulomb cm , SI units = C m)
                  (au)            (Debye)         (10**-30 SI)
   Tot        0.715204D+00      0.181787D+01      0.606376D+01
   x          0.000000D+00      0.000000D+00      0.000000D+00
   y          0.000000D+00      0.000000D+00      0.000000D+00
   z          0.715204D+00      0.181787D+01      0.606376D+01

 Dipole polarizability, Alpha (dipole orientation).
 (esu units = cm**3 , SI units = C**2 m**2 J**-1)
 Alpha(0;0):
               (au)            (10**-24 esu)      (10**-40 SI)
   iso        0.505105D+02      0.748489D+01      0.832806D+01
   aniso      0.247738D+02      0.367110D+01      0.408465D+01
   xx         0.593885D+02      0.880047D+01      0.979184D+01
   yx         0.415539D+01      0.615766D+00      0.685132D+00
   yy         0.394767D+02      0.584984D+01      0.650882D+01
   zx        -0.494838D+00     -0.733275D-01     -0.815878D-01
   zy         0.919034D+01      0.136187D+01      0.151528D+01
   zz         0.526664D+02      0.780436D+01      0.868352D+01

 ----------------------------------------------------------------------
 1\1\GINC-BHC0029\Freq\RB3LYP\def2TZVP\C4H5N1\DHANAWAY\10-Jun-2022\1\\#
 N Geom=AllCheck Guess=TCheck SCRF=Check GenChk RB3LYP/def2TZVP Freq\\t
 s_zmat_initalOpt\\0,1\C\C,1,R2\C,1,R3,2,A3\H,1,R4,2,A4,3,D4,0\C,2,R5,1
 ,A5,3,D5,0\N,3,R6,1,A6,2,D6,0\H,3,R7,1,A7,6,D7,0\H,2,R8,1,A8,5,D8,0\H,
 3,R9,1,A9,6,D9,0\H,5,R10,2,A10,1,D10,0\\R2=1.39183525\R3=1.39946195\R4
 =1.07837836\R5=1.39477085\R6=1.45579709\R7=1.07919787\R8=1.07955097\R9
 =1.29148988\R10=1.07993792\A3=106.64816306\A4=127.31880247\A5=107.5625
 1139\A6=109.31264331\A7=129.64863533\A8=126.30046371\A9=114.98264004\A
 10=127.90136036\D4=179.78970939\D5=0.93575146\D6=1.22539231\D7=161.699
 7068\D8=178.04502089\D9=-59.31877222\D10=174.4986148\\Version=ES64L-G1
 6RevA.03\HF=-210.1772561\RMSD=1.717e-09\RMSF=6.103e-05\ZeroPoint=0.077
 2609\Thermal=0.0809601\Dipole=-0.5800936,0.2791335,-0.3115978\DipoleDe
 riv=-0.0288186,0.0581959,0.0219661,0.0232784,-0.1850679,-0.093237,-0.0
 371217,-0.0705895,0.0201179,0.062137,0.0121073,-0.0909328,-0.0212258,-
 0.1578994,-0.0344666,-0.0192847,0.0495048,-0.0254027,0.1642496,-0.0521
 317,-0.018528,-0.2413097,-0.1621333,0.2982872,0.1026588,0.1410123,-0.1
 156461,0.0192648,-0.0045519,-0.0636543,-0.0100667,0.1697346,0.0089911,
 -0.0573627,0.0009937,0.0517073,0.1011533,-0.0469344,0.0687264,0.086150
 2,-0.1242293,0.0557934,0.1322023,0.0626577,0.0726225,-0.6827293,-0.058
 9117,0.0250543,0.1455358,-0.1264592,-0.0833558,-0.3466343,-0.2084655,-
 0.0797949,0.0677501,0.0095531,0.0253623,0.0664129,0.1738191,-0.114725,
 0.0100115,-0.0312592,0.0314909,-0.0031182,0.0019345,0.0754282,0.008358
 7,0.1637241,0.0058012,0.0774063,0.0000797,0.0341271,0.2448861,0.089612
 2,0.0094774,-0.0272722,0.0951619,-0.0085474,0.1765412,0.0678871,0.0775
 883,0.0552249,-0.0088733,-0.0528997,-0.0298616,0.1533495,-0.0345412,-0
 .0384167,-0.0118211,-0.0668103\Polar=56.727531,1.8451532,34.3180194,-0
 .6410155,-0.7650702,60.486046\PG=C01 [X(C4H5N1)]\NImag=1\\0.73036500,0
 .00021258,0.12960101,0.13315673,0.00567444,0.66745090,-0.12103907,-0.0
 0070091,0.02591723,0.73664800,0.00044769,-0.06337318,-0.00060395,0.001
 14320,0.13391486,-0.01964064,-0.00116225,-0.33122942,-0.12791821,0.004
 95949,0.66905957,-0.28989368,0.00022652,0.03844099,0.01535611,-0.00172
 055,0.08523230,0.54070044,0.02927786,-0.06761374,-0.03937248,0.0249380
 0,0.00988353,0.03021662,-0.06395584,0.14156478,0.07321653,-0.00586073,
 -0.11481032,0.02332822,-0.00117689,-0.03289520,-0.16675036,0.08973658,
 0.66091794,-0.24435209,-0.00164873,-0.14145517,0.00753392,0.00021243,0
 .00401843,-0.01017438,0.00066989,-0.01896553,0.25154707,0.00064166,-0.
 03050434,-0.00084608,0.00007618,0.00107048,0.00002751,-0.00168224,-0.0
 0091334,-0.00006785,0.00121755,0.02283734,-0.14157496,0.00011688,-0.16
 592576,-0.02379181,-0.00013711,-0.00648350,0.00807955,-0.00052328,0.01
 102109,0.15414711,0.00028696,0.16619054,0.01555194,0.00168680,-0.09149
 740,-0.29463702,-0.00036302,-0.03790846,-0.05305293,-0.04567178,-0.008
 25174,-0.00030009,-0.00056838,-0.00033248,0.60405614,-0.00592959,0.012
 26850,0.00519453,-0.01121021,-0.06717994,-0.01133947,0.01176963,0.0137
 3648,0.00124492,-0.00012456,0.00509053,-0.00010477,0.02100683,0.148362
 58,-0.03072238,-0.00083495,-0.02121349,-0.08207525,-0.00599997,-0.1377
 2009,0.02234836,0.02565993,-0.09132549,0.00247950,0.00042492,-0.005850
 00,0.09433553,0.02950015,0.79193349,-0.06866299,0.00279282,-0.00513609
 ,-0.07410749,0.00194297,-0.00389194,-0.10884334,0.00788419,-0.01174910
 ,-0.00441706,0.00007701,0.00439153,-0.18125790,0.01121509,0.09683083,0
 .42202180,-0.03026339,0.01160761,0.02546977,-0.01912583,0.01615118,-0.
 02485671,0.07664178,0.02540914,0.01661424,-0.00067355,0.00575940,0.000
 68901,0.04563028,-0.08621619,-0.02647635,-0.02969744,0.10903981,-0.003
 07753,-0.00406565,-0.05855666,0.06886670,0.00670218,0.03203401,-0.1640
 7668,-0.09001239,-0.14885073,0.00070153,0.00035146,-0.00046245,0.09913
 482,-0.00926063,-0.20653508,-0.07368982,0.06114603,0.36837866,0.001879
 12,0.00692658,0.02250958,-0.00609853,-0.00037677,0.00174278,-0.1073535
 6,0.03075857,0.11262814,0.00017328,-0.00048607,-0.00067117,-0.00399124
 ,0.00033216,-0.00478769,0.01195317,-0.00875600,-0.01541897,0.10226975,
 -0.00498612,-0.00038814,0.00724510,-0.00436676,0.00351461,-0.00362836,
 0.03872665,-0.03571740,-0.06794860,-0.00003092,-0.00169379,-0.00004977
 ,0.00565248,0.00161242,-0.00200317,-0.00357411,-0.01197346,0.01738829,
 -0.02980609,0.04311937,-0.00071821,0.00067276,0.00057782,0.00074135,-0
 .00131135,0.00135423,0.10613622,-0.06472936,-0.27928862,0.00057379,0.0
 0038872,-0.00023200,-0.00563833,-0.00118982,-0.00164301,0.00957172,-0.
 00389235,-0.01779826,-0.11225801,0.06904992,0.29911419,0.00717180,-0.0
 0007266,-0.00406449,-0.24736866,0.00336044,0.13711580,-0.00040591,0.00
 068168,-0.00244101,-0.00010576,0.00000987,0.00073227,-0.00854019,0.000
 61543,0.01941378,-0.00581612,-0.00120558,0.00155033,0.00047542,-0.0001
 0517,0.00008252,0.25496092,0.00000319,0.00105856,0.00066186,0.00361169
 ,-0.03528035,-0.00282248,0.00063105,0.00594653,0.00123101,0.00000436,-
 0.00291390,-0.00000430,-0.00107417,-0.00107945,0.00150021,-0.00237188,
 0.00756631,-0.00165099,-0.00064878,0.00076006,-0.00024208,-0.00379768,
 0.02510414,0.02445592,-0.00025664,-0.00669313,0.13694224,-0.00208817,-
 0.16006614,0.00086928,-0.00018833,-0.00591136,-0.00073133,0.00010113,0
 .00081489,-0.00800545,0.00021160,0.01136489,-0.00423489,-0.00067315,0.
 00082055,0.00131746,0.00022169,0.00008928,-0.15080681,0.00259245,0.160
 46066,-0.02550906,-0.00932446,0.02382371,-0.01718699,-0.00249730,-0.01
 456175,0.01680336,0.01511763,-0.00516665,-0.00045154,0.00051632,0.0003
 6184,0.02051182,-0.01699166,-0.01550928,-0.00195767,-0.03441972,0.0633
 3760,-0.00025727,-0.00108666,0.00063546,-0.00059674,0.00348127,-0.0006
 1085,0.00820250,0.00904547,0.00268115,-0.00174576,0.00383613,-0.000112
 60,0.00675401,-0.05846727,-0.09592370,-0.03439701,0.00034029,0.0005188
 2,-0.00029111,-0.01360868,0.00497348,0.00218711,0.01243844,-0.07208331
 ,0.02284585,0.00100339,-0.00101176,0.00065026,0.00051980,0.00082727,0.
 00006920,0.04424550,0.15865306,-0.03487143,0.00601417,0.03009952,-0.02
 370970,-0.00001509,-0.03395391,0.06631658,0.05120662,0.00279016,-0.000
 78742,-0.00063262,0.00085410,0.05622564,0.00745863,-0.03898146,-0.0061
 2127,-0.04778878,0.05374875,-0.00422007,-0.02083827,-0.00138487,-0.000
 92658,-0.00135691,-0.00069814,-0.05245491,0.00483148,-0.01285337,-0.00
 551098,-0.00009854,-0.00169509,0.00089974,-0.00214909,-0.02418830,-0.0
 0313610,0.00029979,0.00415149,0.00054665,0.00019810,-0.00134186,-0.098
 34053,-0.01068312,-0.10231339,0.01108761,0.00186946,0.02267200,0.00094
 987,-0.00042331,0.00087350,0.00022524,0.00016095,0.00080443,0.00044160
 ,0.00064693,0.00054916,0.09283691,0.00155065,0.00466257,-0.00167742,0.
 00179851,0.00141140,0.00185166,-0.00216973,0.00362772,0.00062432,0.000
 03324,0.00074879,0.00001749,-0.01269036,-0.03156841,-0.02395788,-0.000
 70708,-0.00526050,-0.00344414,0.00105303,0.00177810,0.00060331,-0.0000
 0615,-0.00198917,0.00001023,0.00095906,0.00147760,0.00112077,0.0101788
 3,0.02511191,-0.00022403,-0.00029803,0.00030052,0.00169925,-0.00032912
 ,-0.00009955,0.00340375,-0.00199393,-0.00164748,0.00001908,-0.00003414
 ,0.00007307,-0.09806213,-0.02171513,-0.30002975,-0.00597097,-0.0002316
 9,-0.02277881,-0.00084205,0.00056318,-0.00078877,-0.00065580,0.0000912
 3,-0.00018151,0.00014484,-0.00090401,0.00037922,0.10048806,0.02485165,
 0.32477305\\-0.00009609,0.00024890,-0.00000116,0.00009910,-0.00013781,
 -0.00000002,-0.00000153,-0.00010746,0.00000706,0.00000012,-0.00000022,
 0.,-0.00000433,0.00000023,0.00000186,0.00000352,-0.00000197,-0.0000096
 6,0.00000167,-0.00000117,0.00000205,0.00000014,-0.00000012,0.,-0.00000
 248,-0.00000097,0.00000010,-0.00000012,0.00000059,-0.00000026\\\@


 TRUTH, IN SCIENCE, CAN BE DEFINED AS THE WORKING HYPOTHESIS 
 BEST FITTED TO OPEN THE WAY TO THE NEXT BETTER ONE.

                              -- KONRAD LORENZ
 Job cpu time:       0 days  0 hours 17 minutes 12.6 seconds.
 Elapsed time:       0 days  0 hours  1 minutes 26.7 seconds.
 File lengths (MBytes):  RWF=     34 Int=      0 D2E=      0 Chk=     32 Scr=      1
 Normal termination of Gaussian 16 at Fri Jun 10 11:10:19 2022.
