 Entering Gaussian System, Link 0=g16
 Input=int_zmat_field_N75.gjf
 Output=int_zmat_field_N75.out
 Initial command:
 /software/gaussian/g16-a03/l1.exe "/local_scratch/11171349/Gau-46440.inp" -scrdir="/local_scratch/11171349/"
 Entering Link 1 = /software/gaussian/g16-a03/l1.exe PID=     46441.
  
 Copyright (c) 1988,1990,1992,1993,1995,1998,2003,2009,2016,
            Gaussian, Inc.  All Rights Reserved.
  
 This is part of the Gaussian(R) 16 program.  It is based on
 the Gaussian(R) 09 system (copyright 2009, Gaussian, Inc.),
 the Gaussian(R) 03 system (copyright 2003, Gaussian, Inc.),
 the Gaussian(R) 98 system (copyright 1998, Gaussian, Inc.),
 the Gaussian(R) 94 system (copyright 1995, Gaussian, Inc.),
 the Gaussian 92(TM) system (copyright 1992, Gaussian, Inc.),
 the Gaussian 90(TM) system (copyright 1990, Gaussian, Inc.),
 the Gaussian 88(TM) system (copyright 1988, Gaussian, Inc.),
 the Gaussian 86(TM) system (copyright 1986, Carnegie Mellon
 University), and the Gaussian 82(TM) system (copyright 1983,
 Carnegie Mellon University). Gaussian is a federally registered
 trademark of Gaussian, Inc.
  
 This software contains proprietary and confidential information,
 including trade secrets, belonging to Gaussian, Inc.
  
 This software is provided under written license and may be
 used, copied, transmitted, or stored only in accord with that
 written license.
  
 The following legend is applicable only to US Government
 contracts under FAR:
  
                    RESTRICTED RIGHTS LEGEND
  
 Use, reproduction and disclosure by the US Government is
 subject to restrictions as set forth in subparagraphs (a)
 and (c) of the Commercial Computer Software - Restricted
 Rights clause in FAR 52.227-19.
  
 Gaussian, Inc.
 340 Quinnipiac St., Bldg. 40, Wallingford CT 06492
  
  
 ---------------------------------------------------------------
 Warning -- This program may not be used in any manner that
 competes with the business of Gaussian, Inc. or will provide
 assistance to any competitor of Gaussian, Inc.  The licensee
 of this program is prohibited from giving any competitor of
 Gaussian, Inc. access to this program.  By using this program,
 the user acknowledges that Gaussian, Inc. is engaged in the
 business of creating and licensing software in the field of
 computational chemistry and represents and warrants to the
 licensee that it is not a competitor of Gaussian, Inc. and that
 it will not use this program in any manner prohibited above.
 ---------------------------------------------------------------
  

 Cite this work as:
 Gaussian 16, Revision A.03,
 M. J. Frisch, G. W. Trucks, H. B. Schlegel, G. E. Scuseria, 
 M. A. Robb, J. R. Cheeseman, G. Scalmani, V. Barone, 
 G. A. Petersson, H. Nakatsuji, X. Li, M. Caricato, A. V. Marenich, 
 J. Bloino, B. G. Janesko, R. Gomperts, B. Mennucci, H. P. Hratchian, 
 J. V. Ortiz, A. F. Izmaylov, J. L. Sonnenberg, D. Williams-Young, 
 F. Ding, F. Lipparini, F. Egidi, J. Goings, B. Peng, A. Petrone, 
 T. Henderson, D. Ranasinghe, V. G. Zakrzewski, J. Gao, N. Rega, 
 G. Zheng, W. Liang, M. Hada, M. Ehara, K. Toyota, R. Fukuda, 
 J. Hasegawa, M. Ishida, T. Nakajima, Y. Honda, O. Kitao, H. Nakai, 
 T. Vreven, K. Throssell, J. A. Montgomery, Jr., J. E. Peralta, 
 F. Ogliaro, M. J. Bearpark, J. J. Heyd, E. N. Brothers, K. N. Kudin, 
 V. N. Staroverov, T. A. Keith, R. Kobayashi, J. Normand, 
 K. Raghavachari, A. P. Rendell, J. C. Burant, S. S. Iyengar, 
 J. Tomasi, M. Cossi, J. M. Millam, M. Klene, C. Adamo, R. Cammi, 
 J. W. Ochterski, R. L. Martin, K. Morokuma, O. Farkas, 
 J. B. Foresman, and D. J. Fox, Gaussian, Inc., Wallingford CT, 2016.
 
 ******************************************
 Gaussian 16:  ES64L-G16RevA.03 25-Dec-2016
                10-Jun-2022 
 ******************************************
 %nprocshared=12
 Will use up to   12 processors via shared memory.
 %chk=checkpoint.chk
 %mem=12GB
 ----------------------------------------------------------------------
 # Opt=(Z-matrix, MaxStep=10) B3LYP/Def2TZVP geom=allcheckpoint guess=r
 ead Field=read NoSymm freq=noraman pop=none
 ----------------------------------------------------------------------
 1/8=10,10=7,18=40,26=3,29=7,38=1/1,3;
 2/12=2,15=1,29=3,40=1/2;
 3/5=44,7=101,11=2,14=-6,25=1,30=1,71=1,74=-5,116=-2/1,2,3;
 4/5=1/1;
 5/5=2,38=6/2;
 7/29=1,30=1/1,2,3,16;
 1/8=10,10=7,18=40,26=3/3(2);
 2/15=1,29=3/2;
 99//99;
 2/15=1,29=3/2;
 3/5=44,7=101,11=2,14=-2,25=1,30=1,71=1,74=-5/1,2,3;
 4/5=5,16=3,69=1/1;
 5/5=2,38=5/2;
 7/30=1/1,2,3,16;
 1/8=10,18=40,26=3/3(-5);
 2/15=1,29=3/2;
 99/9=1/99;
 Structure from the checkpoint file:  "checkpoint.chk"
 ------------------
 int_zmat_initalOpt
 ------------------
 Charge =  0 Multiplicity = 1
 Z-Matrix found in chk file.
 C
 C,1,R2
 C,1,R3,2,A3
 H,1,R4,2,A4,3,D4,0
 H,1,R5,2,A5,3,D5,0
 C,2,R6,1,A6,3,D6,0
 C,3,R7,1,A7,2,D7,0
 H,2,R8,1,A8,6,D8,0
 H,2,R9,1,A9,6,D9,0
 H,3,R10,1,A10,7,D10,0
 C,7,R11,3,A11,1,D11,0
 C,6,R12,2,A12,1,D12,0
 H,7,R13,3,A13,11,D13,0
 H,6,R14,2,A14,12,D14,0
 C,12,R15,6,A15,2,D15,0
 H,11,R16,7,A16,3,D16,0
 H,11,R17,7,A17,16,D17,0
 H,12,R18,6,A18,15,D18,0
 H,15,R19,12,A19,6,D19,0
 H,15,R20,12,A20,19,D20,0
      Variables:
 R2=1.54692078
 R3=1.54458495
 R4=1.08991081
 R5=1.09165813
 R6=1.55073656
 R7=1.49086533
 R8=1.0912105
 R9=1.08806913
 R10=1.09621814
 R11=1.3279654
 R12=1.49791082
 R13=1.08819038
 R14=1.09364569
 R15=1.32699643
 R16=1.08247642
 R17=1.08354702
 R18=1.08701867
 R19=1.08290514
 R20=1.08206118
 A3=88.86361965
 A4=111.10995405
 A5=117.98986369
 A6=89.44283731
 A7=121.84764209
 A8=112.05945044
 A9=117.39245394
 A10=109.29386226
 A11=126.34275358
 A12=117.49016446
 A13=115.23248418
 A14=114.93773403
 A15=127.52411178
 A16=121.36566112
 A17=121.98328115
 A18=114.42854644
 A19=122.76362742
 A20=120.97228165
 D4=-112.76008643
 D5=120.64620943
 D6=19.08152962
 D7=-143.99256652
 D8=-112.57680941
 D9=121.12823511
 D10=-127.57474594
 D11=-6.01379517
 D12=98.20767118
 D13=-179.94713261
 D14=129.22299738
 D15=14.15666676
 D16=-180.37116725
 D17=181.30683059
 D18=178.64731978
 D19=-0.66983888
 D20=179.13659801
 Recover connectivity data from disk.

 GradGradGradGradGradGradGradGradGradGradGradGradGradGradGradGradGradGrad
 Berny optimization.
 Initialization pass.
                       ----------------------------
                       !    Initial Parameters    !
                       ! (Angstroms and Degrees)  !
 ----------------------                            ----------------------
 !      Name          Value   Derivative information (Atomic Units)     !
 ------------------------------------------------------------------------
 !       R2          1.5469   estimate D2E/DX2                          !
 !       R3          1.5446   estimate D2E/DX2                          !
 !       R4          1.0899   estimate D2E/DX2                          !
 !       R5          1.0917   estimate D2E/DX2                          !
 !       R6          1.5507   estimate D2E/DX2                          !
 !       R7          1.4909   estimate D2E/DX2                          !
 !       R8          1.0912   estimate D2E/DX2                          !
 !       R9          1.0881   estimate D2E/DX2                          !
 !       R10         1.0962   estimate D2E/DX2                          !
 !       R11         1.328    estimate D2E/DX2                          !
 !       R12         1.4979   estimate D2E/DX2                          !
 !       R13         1.0882   estimate D2E/DX2                          !
 !       R14         1.0936   estimate D2E/DX2                          !
 !       R15         1.327    estimate D2E/DX2                          !
 !       R16         1.0825   estimate D2E/DX2                          !
 !       R17         1.0835   estimate D2E/DX2                          !
 !       R18         1.087    estimate D2E/DX2                          !
 !       R19         1.0829   estimate D2E/DX2                          !
 !       R20         1.0821   estimate D2E/DX2                          !
 !       A3         88.8636   estimate D2E/DX2                          !
 !       A4        111.11     estimate D2E/DX2                          !
 !       A5        117.9899   estimate D2E/DX2                          !
 !       A6         89.4428   estimate D2E/DX2                          !
 !       A7        121.8476   estimate D2E/DX2                          !
 !       A8        112.0595   estimate D2E/DX2                          !
 !       A9        117.3925   estimate D2E/DX2                          !
 !       A10       109.2939   estimate D2E/DX2                          !
 !       A11       126.3428   estimate D2E/DX2                          !
 !       A12       117.4902   estimate D2E/DX2                          !
 !       A13       115.2325   estimate D2E/DX2                          !
 !       A14       114.9377   estimate D2E/DX2                          !
 !       A15       127.5241   estimate D2E/DX2                          !
 !       A16       121.3657   estimate D2E/DX2                          !
 !       A17       121.9833   estimate D2E/DX2                          !
 !       A18       114.4285   estimate D2E/DX2                          !
 !       A19       122.7636   estimate D2E/DX2                          !
 !       A20       120.9723   estimate D2E/DX2                          !
 !       D4       -112.7601   estimate D2E/DX2                          !
 !       D5        120.6462   estimate D2E/DX2                          !
 !       D6         19.0815   estimate D2E/DX2                          !
 !       D7       -143.9926   estimate D2E/DX2                          !
 !       D8       -112.5768   estimate D2E/DX2                          !
 !       D9        121.1282   estimate D2E/DX2                          !
 !       D10      -127.5747   estimate D2E/DX2                          !
 !       D11        -6.0138   estimate D2E/DX2                          !
 !       D12        98.2077   estimate D2E/DX2                          !
 !       D13      -179.9471   estimate D2E/DX2                          !
 !       D14       129.223    estimate D2E/DX2                          !
 !       D15        14.1567   estimate D2E/DX2                          !
 !       D16      -180.3712   estimate D2E/DX2                          !
 !       D17       181.3068   estimate D2E/DX2                          !
 !       D18       178.6473   estimate D2E/DX2                          !
 !       D19        -0.6698   estimate D2E/DX2                          !
 !       D20       179.1366   estimate D2E/DX2                          !
 ------------------------------------------------------------------------
 Trust Radius=1.00D-01 FncErr=1.00D-07 GrdErr=1.00D-06 EigMax=2.50D+02 EigMin=1.00D-04
 Number of steps in this run=     64 maximum allowed number of steps=    108.
 GradGradGradGradGradGradGradGradGradGradGradGradGradGradGradGradGradGrad

 ---------------------------------------------------------------------------------------------------
                            Z-MATRIX (ANGSTROMS AND DEGREES)
   CD    Cent   Atom    N1       Length/X        N2       Alpha/Y        N3        Beta/Z          J
 ---------------------------------------------------------------------------------------------------
      1      1  C 
      2      2  C        1   1.546921(     1)
      3      3  C        1   1.544585(     2)      2   88.864(    20)
      4      4  H        1   1.089911(     3)      2  111.110(    21)      3 -112.760(    38)      0
      5      5  H        1   1.091658(     4)      2  117.990(    22)      3  120.646(    39)      0
      6      6  C        2   1.550737(     5)      1   89.443(    23)      3   19.082(    40)      0
      7      7  C        3   1.490865(     6)      1  121.848(    24)      2 -143.993(    41)      0
      8      8  H        2   1.091210(     7)      1  112.059(    25)      6 -112.577(    42)      0
      9      9  H        2   1.088069(     8)      1  117.392(    26)      6  121.128(    43)      0
     10     10  H        3   1.096218(     9)      1  109.294(    27)      7 -127.575(    44)      0
     11     11  C        7   1.327965(    10)      3  126.343(    28)      1   -6.014(    45)      0
     12     12  C        6   1.497911(    11)      2  117.490(    29)      1   98.208(    46)      0
     13     13  H        7   1.088190(    12)      3  115.232(    30)     11 -179.947(    47)      0
     14     14  H        6   1.093646(    13)      2  114.938(    31)     12  129.223(    48)      0
     15     15  C       12   1.326996(    14)      6  127.524(    32)      2   14.157(    49)      0
     16     16  H       11   1.082476(    15)      7  121.366(    33)      3 -180.371(    50)      0
     17     17  H       11   1.083547(    16)      7  121.983(    34)     16  181.307(    51)      0
     18     18  H       12   1.087019(    17)      6  114.429(    35)     15  178.647(    52)      0
     19     19  H       15   1.082905(    18)     12  122.764(    36)      6   -0.670(    53)      0
     20     20  H       15   1.082061(    19)     12  120.972(    37)     19  179.137(    54)      0
 ---------------------------------------------------------------------------------------------------
                         Z-Matrix orientation:                         
 ---------------------------------------------------------------------
 Center     Atomic      Atomic             Coordinates (Angstroms)
 Number     Number       Type             X           Y           Z
 ---------------------------------------------------------------------
      1          6           0        0.000000    0.000000    0.000000
      2          6           0        0.000000    0.000000    1.546921
      3          6           0        1.544281    0.000000    0.030633
      4          1           0       -0.393360    0.937595   -0.392541
      5          1           0       -0.491368   -0.829331   -0.512332
      6          6           0        1.465461    0.506932    1.531841
      7          6           0        2.351117    0.744517   -0.978025
      8          1           0       -0.061657   -1.009447    1.956745
      9          1           0       -0.742321    0.618265    2.047523
     10          1           0        1.905854   -1.034263    0.066110
     11          6           0        1.883880    1.376855   -2.048226
     12          6           0        1.690666    1.976471    1.714807
     13          1           0        3.424172    0.755165   -0.797474
     14          1           0        2.146142   -0.030401    2.198180
     15          6           0        0.819270    2.880405    2.144333
     16          1           0        2.545293    1.899383   -2.727382
     17          1           0        0.825157    1.414907   -2.275674
     18          1           0        2.698629    2.309372    1.480720
     19          1           0       -0.200537    2.631335    2.410116
     20          1           0        1.104478    3.917747    2.260236
 ---------------------------------------------------------------------
                    Distance matrix (angstroms):
                    1          2          3          4          5
     1  C    0.000000
     2  C    1.546921   0.000000
     3  C    1.544585   2.164240   0.000000
     4  H    1.089911   2.189824   2.193767   0.000000
     5  H    1.091658   2.273710   2.264171   1.773692   0.000000
     6  C    2.179700   1.550737   1.586449   2.709969   3.129445
     7  C    2.653034   3.529505   1.490865   2.812868   3.282315
     8  H    2.202643   1.091210   2.703318   3.069225   2.512655
     9  H    2.263988   1.088069   3.111053   2.485489   2.951503
    10  H    2.169412   2.625792   1.096218   3.063490   2.474523
    11  C    3.104829   4.286002   2.516487   2.849573   3.587204
    12  C    3.115341   2.606333   2.600829   3.140596   4.194514
    13  H    3.595997   4.217987   2.188612   3.843280   4.233603
    14  H    3.072270   2.242986   2.249760   3.754720   3.865440
    15  C    3.683218   3.053659   3.645559   3.417705   4.747397
    16  H    4.186261   5.325019   3.495186   3.874558   4.644743
    17  H    2.803843   4.158735   2.799670   2.293207   3.143123
    18  H    3.848159   3.552489   2.961160   3.866688   4.898959
    19  H    3.573906   2.776553   3.953512   3.280370   4.538887
    20  H    4.655887   4.132485   4.529161   4.261696   5.724387
                    6          7          8          9         10
     6  C    0.000000
     7  C    2.672126   0.000000
     8  H    2.193636   4.184584   0.000000
     9  H    2.269940   4.328884   1.766632   0.000000
    10  H    2.172004   2.110103   2.728776   3.697253   0.000000
    11  C    3.707926   1.327965   5.051667   4.924180   3.206928
    12  C    1.497911   3.034016   3.470572   2.806216   3.439336
    13  H    3.053502   1.088190   4.780228   5.047020   2.500624
    14  H    1.093646   3.275788   2.427179   2.964234   2.368798
    15  C    2.534972   4.081383   3.992764   2.750494   4.563365
    16  H    4.609331   2.105153   6.099059   5.937119   4.101068
    17  H    3.966305   2.112314   4.957550   4.667082   3.556724
    18  H    2.184515   2.935125   4.342849   3.875725   3.716115
    19  H    2.839015   4.642254   3.671529   2.116000   4.834032
    20  H    3.506355   4.702109   5.072398   3.787149   5.475290
                   11         12         13         14         15
    11  C    0.000000
    12  C    3.815402   0.000000
    13  H    2.079273   3.287581   0.000000
    14  H    4.481195   2.113916   3.350286   0.000000
    15  C    4.579477   1.326996   4.467257   3.199419   0.000000
    16  H    1.082476   4.524309   2.409607   5.305143   5.260719
    17  H    1.083547   4.121698   3.061897   4.883573   4.656627
    18  H    3.739901   1.087019   2.851690   2.508890   2.073270
    19  H    5.078911   2.118714   5.191066   3.554808   1.082905
    20  H    5.062257   2.099920   4.973177   4.083723   1.082061
                   16         17         18         19         20
    16  H    0.000000
    17  H    1.843264   0.000000
    18  H    4.230806   4.291906   0.000000
    19  H    5.871050   4.948573   3.061471   0.000000
    20  H    5.570105   5.188131   2.394960   1.838583   0.000000
 Symmetry turned off by external request.
 Stoichiometry    C8H12
 Framework group  C1[X(C8H12)]
 Deg. of freedom    54
 Full point group                 C1      NOp   1
 Rotational constants (GHZ):           2.7994495           1.6947916           1.3169495
 Standard basis: def2TZVP (5D, 7F)
 The following finite field(s) will be applied:
 An electric field of             -0.0020 -0.0063 -0.0035
   320 basis functions,   504 primitive gaussians,   360 cartesian basis functions
    30 alpha electrons       30 beta electrons
       nuclear repulsion energy       360.4302975714 Hartrees.
 NAtoms=   20 NActive=   20 NUniq=   20 SFac= 1.00D+00 NAtFMM=   60 NAOKFM=F Big=F
 Integral buffers will be    131072 words long.
 Raffenetti 2 integral format.
 Two-electron integral symmetry is turned off.
 One-electron integrals computed using PRISM.
   1 Symmetry operations used in ECPInt.
 ECPInt:  NShTT=    9316 NPrTT=   27240 LenC2=    9174 LenP2D=   21656.
 LDataN:  DoStor=T MaxTD1= 6 Len=  172
 NBasis=   320 RedAO= T EigKep=  3.47D-05  NBF=   320
 NBsUse=   320 1.00D-06 EigRej= -1.00D+00 NBFU=   320
 The nuclear repulsion energy is now       359.2938556299 hartrees.
 Initial guess from the checkpoint file:  "checkpoint.chk"
 B after Tr=     0.000000    0.000000    0.000000
         Rot=    1.000000   -0.000000    0.000000    0.000000 Ang=   0.00 deg.
 Requested convergence on RMS density matrix=1.00D-08 within 128 cycles.
 Requested convergence on MAX density matrix=1.00D-06.
 Requested convergence on             energy=1.00D-06.
 No special actions if energy rises.
 SCF Done:  E(RB3LYP) =  -312.118482699     A.U. after   10 cycles
            NFock= 10  Conv=0.42D-08     -V/T= 2.0056
   1 Symmetry operations used in ECPInt.
 ECPInt:  NShTT=    9316 NPrTT=   27240 LenC2=    9174 LenP2D=   21656.
 LDataN:  DoStor=T MaxTD1= 7 Len=  274
 Calling FoFJK, ICntrl=      2127 FMM=F ISym2X=0 I1Cent= 0 IOpClX= 0 NMat=1 NMatS=1 NMatT=0.
 -------------------------------------------------------------------
 Center     Atomic                   Forces (Hartrees/Bohr)
 Number     Number              X              Y              Z
 -------------------------------------------------------------------
      1        6           0.000228609    0.000040227    0.000287599
      2        6          -0.000217432    0.000481232    0.000054701
      3        6           0.000048345    0.000340129   -0.000039611
      4        1           0.000022733    0.000012122    0.000056426
      5        1          -0.000285730   -0.000396999   -0.000315461
      6        6           0.000085659    0.000013771    0.000125068
      7        6           0.000059736   -0.000459491   -0.000133504
      8        1          -0.000009193   -0.000300756    0.000124214
      9        1           0.000160224   -0.000005518   -0.000039922
     10        1           0.000134073   -0.000350898    0.000027807
     11        6           0.000160755   -0.000509545   -0.000536195
     12        6          -0.000036833    0.000703332   -0.000260071
     13        1          -0.000106164    0.000250533    0.000141556
     14        1          -0.000109177   -0.000098111   -0.000055587
     15        6           0.000175852   -0.000195238   -0.000338782
     16        1          -0.000037363    0.000281287    0.000205897
     17        1          -0.000121481    0.000247207    0.000179047
     18        1          -0.000052654   -0.000046915    0.000190125
     19        1          -0.000025412    0.000098897    0.000168248
     20        1          -0.000074546   -0.000105265    0.000158445
 -------------------------------------------------------------------
 Cartesian Forces:  Max     0.000703332 RMS     0.000231052
 -----------------------------------------------------------------------------------------------
                       Internal Coordinate Forces (Hartree/Bohr or radian)
  Cent   Atom   N1       Length/X         N2         Alpha/Y        N3         Beta/Z          J
 -----------------------------------------------------------------------------------------------
      1  C 
      2  C        1   0.000126(     1)
      3  C        1   0.000135(     2)      2   0.000494(    20)
      4  H        1  -0.000018(     3)      2  -0.000110(    21)      3   0.000049(    38)     0
      5  H        1   0.000578(     4)      2   0.000103(    22)      3   0.000079(    39)     0
      6  C        2   0.000086(     5)      1   0.000161(    23)      3   0.000927(    40)     0
      7  C        3  -0.000022(     6)      1  -0.000134(    24)      2  -0.000132(    41)     0
      8  H        2   0.000325(     7)      1   0.000004(    25)      6   0.000018(    42)     0
      9  H        2  -0.000131(     8)      1   0.000047(    26)      6  -0.000179(    43)     0
     10  H        3   0.000376(     9)      1   0.000023(    27)      7  -0.000030(    44)     0
     11  C        7   0.000130(    10)      3   0.000063(    28)      1  -0.000148(    45)     0
     12  C        6   0.000434(    11)      2  -0.000273(    29)      1   0.000188(    46)     0
     13  H        7  -0.000079(    12)      3   0.000012(    30)     11  -0.000551(    47)     0
     14  H        6  -0.000054(    13)      2  -0.000255(    31)     12   0.000151(    48)     0
     15  C       12  -0.000191(    14)      6  -0.000146(    32)      2  -0.000015(    49)     0
     16  H       11  -0.000016(    15)      7  -0.000025(    33)      3  -0.000066(    50)     0
     17  H       11   0.000090(    16)      7  -0.000076(    34)     16   0.000545(    51)     0
     18  H       12  -0.000104(    17)      6   0.000028(    35)     15  -0.000324(    52)     0
     19  H       15   0.000042(    18)     12   0.000281(    36)      6  -0.000028(    53)     0
     20  H       15  -0.000104(    19)     12   0.000195(    37)     19  -0.000259(    54)     0
 -----------------------------------------------------------------------------------------------
 Internal  Forces:  Max     0.000926742 RMS     0.000247358

 GradGradGradGradGradGradGradGradGradGradGradGradGradGradGradGradGradGrad
 Berny optimization.
 Search for a local minimum.
 Step number   1 out of a maximum of   64
 All quantities printed in internal units (Hartrees-Bohrs-Radians)
 Second derivative matrix not updated -- first step.
 ITU=  0
     Eigenvalues ---    0.03288   0.03493   0.04898   0.05467   0.08122
     Eigenvalues ---    0.09433   0.11262   0.11714   0.12774   0.13515
     Eigenvalues ---    0.16441   0.16929   0.17862   0.18006   0.18398
     Eigenvalues ---    0.18674   0.20144   0.20647   0.21050   0.22933
     Eigenvalues ---    0.23537   0.26967   0.27689   0.28619   0.30300
     Eigenvalues ---    0.31850   0.32597   0.33355   0.34104   0.34395
     Eigenvalues ---    0.34622   0.34673   0.34823   0.35023   0.35037
     Eigenvalues ---    0.35160   0.35569   0.35645   0.35697   0.35746
     Eigenvalues ---    0.39412   0.41900   0.42120   0.45456   0.48496
     Eigenvalues ---    0.51003   0.52709   0.54790   0.59989   0.60221
     Eigenvalues ---    0.63094   0.87977   1.19692   4.95569
 RFO step:  Lambda=-1.83966333D-05 EMin= 3.28830553D-02
 Linear search not attempted -- first point.
 Variable       Old X    -DE/DX   Delta X   Delta X   Delta X     New X
                                 (Linear)    (Quad)   (Total)
    R2        2.92326   0.00013   0.00000   0.00013   0.00013   2.92339
    R3        2.91884   0.00013   0.00000   0.00009   0.00009   2.91894
    R4        2.05963  -0.00002   0.00000  -0.00005  -0.00005   2.05958
    R5        2.06293   0.00058   0.00000   0.00167   0.00167   2.06461
    R6        2.93047   0.00009   0.00000   0.00056   0.00056   2.93103
    R7        2.81733  -0.00002   0.00000  -0.00007  -0.00007   2.81726
    R8        2.06209   0.00033   0.00000   0.00094   0.00094   2.06303
    R9        2.05615  -0.00013   0.00000  -0.00038  -0.00038   2.05577
   R10        2.07155   0.00038   0.00000   0.00111   0.00111   2.07266
   R11        2.50949   0.00013   0.00000   0.00022   0.00022   2.50971
   R12        2.83064   0.00043   0.00000   0.00132   0.00132   2.83196
   R13        2.05638  -0.00008   0.00000  -0.00022  -0.00022   2.05616
   R14        2.06669  -0.00005   0.00000  -0.00014  -0.00014   2.06655
   R15        2.50766  -0.00019   0.00000  -0.00032  -0.00032   2.50734
   R16        2.04558  -0.00002   0.00000  -0.00004  -0.00004   2.04554
   R17        2.04761   0.00009   0.00000   0.00025   0.00025   2.04786
   R18        2.05417  -0.00010   0.00000  -0.00029  -0.00029   2.05388
   R19        2.04639   0.00004   0.00000   0.00012   0.00012   2.04651
   R20        2.04480  -0.00010   0.00000  -0.00029  -0.00029   2.04451
    A3        1.55096   0.00049   0.00000  -0.00011  -0.00011   1.55085
    A4        1.93923  -0.00011   0.00000  -0.00051  -0.00051   1.93873
    A5        2.05931   0.00010   0.00000   0.00049   0.00049   2.05980
    A6        1.56107   0.00016   0.00000  -0.00121  -0.00121   1.55986
    A7        2.12664  -0.00013   0.00000  -0.00028  -0.00028   2.12636
    A8        1.95581   0.00000   0.00000   0.00063   0.00063   1.95644
    A9        2.04888   0.00005   0.00000   0.00025   0.00025   2.04913
   A10        1.90754   0.00002   0.00000   0.00058   0.00058   1.90812
   A11        2.20510   0.00006   0.00000   0.00021   0.00021   2.20531
   A12        2.05059  -0.00027   0.00000   0.00063   0.00063   2.05122
   A13        2.01119   0.00001   0.00000  -0.00010  -0.00010   2.01109
   A14        2.00604  -0.00026   0.00000  -0.00133  -0.00133   2.00471
   A15        2.22572  -0.00015   0.00000   0.00023   0.00023   2.22595
   A16        2.11823  -0.00002   0.00000  -0.00002  -0.00002   2.11821
   A17        2.12901  -0.00008   0.00000  -0.00030  -0.00030   2.12871
   A18        1.99715   0.00003   0.00000  -0.00026  -0.00026   1.99690
   A19        2.14263   0.00028   0.00000   0.00102   0.00102   2.14365
   A20        2.11136   0.00020   0.00000  -0.00017  -0.00017   2.11120
    D4       -1.96803   0.00005   0.00000   0.00028   0.00028  -1.96775
    D5        2.10567   0.00008   0.00000   0.00041   0.00041   2.10609
    D6        0.33304   0.00093   0.00000   0.00432   0.00432   0.33735
    D7       -2.51314  -0.00013   0.00000  -0.00375  -0.00375  -2.51690
    D8       -1.96484   0.00002   0.00000  -0.00021  -0.00021  -1.96504
    D9        2.11409  -0.00018   0.00000  -0.00188  -0.00188   2.11221
   D10       -2.22660  -0.00003   0.00000  -0.00076  -0.00076  -2.22736
   D11       -0.10496  -0.00015   0.00000   0.00081   0.00081  -0.10415
   D12        1.71405   0.00019   0.00000  -0.00344  -0.00344   1.71061
   D13       -3.14067  -0.00055   0.00000  -0.00598  -0.00598  -3.14665
   D14        2.25537   0.00015   0.00000   0.00055   0.00055   2.25592
   D15        0.24708  -0.00001   0.00000   0.00207   0.00207   0.24915
   D16       -3.14807  -0.00007   0.00000  -0.00788  -0.00788  -3.15595
   D17        3.16440   0.00055   0.00000   0.00903   0.00903   3.17343
   D18        3.11798  -0.00032   0.00000  -0.00471  -0.00471   3.11327
   D19       -0.01169  -0.00003   0.00000  -0.00128  -0.00128  -0.01297
   D20        3.12652  -0.00026   0.00000  -0.00372  -0.00372   3.12280
         Item               Value     Threshold  Converged?
 Maximum Force            0.000927     0.000450     NO 
 RMS     Force            0.000247     0.000300     YES
 Maximum Displacement     0.009031     0.001800     NO 
 RMS     Displacement     0.002298     0.001200     NO 
 Predicted change in Energy=-9.198316D-06
 GradGradGradGradGradGradGradGradGradGradGradGradGradGradGradGradGradGrad

 ---------------------------------------------------------------------------------------------------
                            Z-MATRIX (ANGSTROMS AND DEGREES)
   CD    Cent   Atom    N1       Length/X        N2       Alpha/Y        N3        Beta/Z          J
 ---------------------------------------------------------------------------------------------------
      1      1  C 
      2      2  C        1   1.546991(     1)
      3      3  C        1   1.544634(     2)      2   88.857(    20)
      4      4  H        1   1.089884(     3)      2  111.081(    21)      3 -112.744(    38)      0
      5      5  H        1   1.092542(     4)      2  118.018(    22)      3  120.670(    39)      0
      6      6  C        2   1.551035(     5)      1   89.374(    23)      3   19.329(    40)      0
      7      7  C        3   1.490831(     6)      1  121.832(    24)      2 -144.208(    41)      0
      8      8  H        2   1.091708(     7)      1  112.096(    25)      6 -112.589(    42)      0
      9      9  H        2   1.087869(     8)      1  117.407(    26)      6  121.021(    43)      0
     10     10  H        3   1.096804(     9)      1  109.327(    27)      7 -127.618(    44)      0
     11     11  C        7   1.328081(    10)      3  126.355(    28)      1   -5.967(    45)      0
     12     12  C        6   1.498607(    11)      2  117.526(    29)      1   98.011(    46)      0
     13     13  H        7   1.088075(    12)      3  115.227(    30)     11 -180.290(    47)      0
     14     14  H        6   1.093570(    13)      2  114.862(    31)     12  129.255(    48)      0
     15     15  C       12   1.326829(    14)      6  127.537(    32)      2   14.275(    49)      0
     16     16  H       11   1.082454(    15)      7  121.364(    33)      3 -180.823(    50)      0
     17     17  H       11   1.083681(    16)      7  121.966(    34)     16  181.824(    51)      0
     18     18  H       12   1.086867(    17)      6  114.414(    35)     15  178.377(    52)      0
     19     19  H       15   1.082967(    18)     12  122.822(    36)      6   -0.743(    53)      0
     20     20  H       15   1.081907(    19)     12  120.963(    37)     19  178.923(    54)      0
 ---------------------------------------------------------------------------------------------------
                         Z-Matrix orientation:                         
 ---------------------------------------------------------------------
 Center     Atomic      Atomic             Coordinates (Angstroms)
 Number     Number       Type             X           Y           Z
 ---------------------------------------------------------------------
      1          6           0        0.000000    0.000000    0.000000
      2          6           0        0.000000    0.000000    1.546991
      3          6           0        1.544327    0.000000    0.030800
      4          1           0       -0.393161    0.937867   -0.392017
      5          1           0       -0.491982   -0.829585   -0.513216
      6          6           0        1.463522    0.513345    1.530032
      7          6           0        2.350958    0.740778   -0.980718
      8          1           0       -0.057521   -1.009893    1.957644
      9          1           0       -0.743594    0.616261    2.047741
     10          1           0        1.906601   -1.034466    0.071011
     11          6           0        1.883670    1.369910   -2.052929
     12          6           0        1.683371    1.985059    1.707651
     13          1           0        3.423392    0.756410   -0.797554
     14          1           0        2.145518   -0.019766    2.198292
     15          6           0        0.809620    2.887076    2.135904
     16          1           0        2.544358    1.895892   -2.730086
     17          1           0        0.824608    1.408540   -2.279333
     18          1           0        2.690712    2.320131    1.474693
     19          1           0       -0.209259    2.636338    2.403921
     20          1           0        1.092588    3.924857    2.251929
 ---------------------------------------------------------------------
                    Distance matrix (angstroms):
                    1          2          3          4          5
     1  C    0.000000
     2  C    1.546991   0.000000
     3  C    1.544634   2.164204   0.000000
     4  H    1.089884   2.189502   2.193679   0.000000
     5  H    1.092542   2.274799   2.265110   1.774357   0.000000
     6  C    2.178628   1.551035   1.586741   2.705876   3.130866
     7  C    2.652841   3.530591   1.490831   2.813468   3.281297
     8  H    2.203534   1.091708   2.701578   3.070395   2.515236
     9  H    2.264056   1.087869   3.111657   2.485689   2.951657
    10  H    2.170320   2.623693   1.096804   3.064865   2.477196
    11  C    3.104736   4.287690   2.516691   2.851184   3.584999
    12  C    3.112919   2.607682   2.602233   3.133241   4.193642
    13  H    3.595534   4.217661   2.188427   3.842325   4.233956
    14  H    3.071827   2.242282   2.249408   3.751219   3.868396
    15  C    3.681410   3.055734   3.647803   3.411229   4.746112
    16  H    4.185873   5.325556   3.495277   3.874713   4.643501
    17  H    2.803449   4.159894   2.799768   2.294877   3.140348
    18  H    3.846773   3.553613   2.963449   3.860769   4.899187
    19  H    3.573920   2.780000   3.956899   3.276568   4.538970
    20  H    4.655044   4.134633   4.532327   4.256761   5.723776
                    6          7          8          9         10
     6  C    0.000000
     7  C    2.672664   0.000000
     8  H    2.194693   4.183251   0.000000
     9  H    2.269356   4.331665   1.767255   0.000000
    10  H    2.172735   2.110707   2.723557   3.695388   0.000000
    11  C    3.707807   1.328081   5.051373   4.928082   3.208220
    12  C    1.498607   3.036649   3.473173   2.807031   3.441795
    13  H    3.052511   1.088075   4.777834   5.047684   2.502459
    14  H    1.093570   3.275170   2.427271   2.962121   2.368970
    15  C    2.535600   4.086031   3.996258   2.752607   4.565703
    16  H    4.607412   2.105226   6.098210   5.939336   4.103643
    17  H    3.964953   2.112357   4.957715   4.670175   3.558526
    18  H    2.184842   2.939189   4.344547   3.876340   3.720010
    19  H    2.840595   4.647972   3.676573   2.119691   4.836749
    20  H    3.506728   4.708701   5.075541   3.789468   5.478495
                   11         12         13         14         15
    11  C    0.000000
    12  C    3.815821   0.000000
    13  H    2.079204   3.288359   0.000000
    14  H    4.480250   2.115095   3.348209   0.000000
    15  C    4.582761   1.326829   4.469532   3.199726   0.000000
    16  H    1.082454   4.521367   2.409523   5.302615   5.260192
    17  H    1.083681   4.118968   3.061801   4.882006   4.656245
    18  H    3.741437   1.086867   2.853970   2.509173   2.072953
    19  H    5.084064   2.119199   5.194201   3.555580   1.082967
    20  H    5.068073   2.099543   4.977052   4.083086   1.081907
                   16         17         18         19         20
    16  H    0.000000
    17  H    1.843429   0.000000
    18  H    4.228659   4.290228   0.000000
    19  H    5.872708   4.950681   3.061583   0.000000
    20  H    5.571786   5.189991   2.394419   1.837985   0.000000
 Symmetry turned off by external request.
 Stoichiometry    C8H12
 Framework group  C1[X(C8H12)]
 Deg. of freedom    54
 Full point group                 C1      NOp   1
 Rotational constants (GHZ):           2.8002454           1.6933412           1.3162134
 Standard basis: def2TZVP (5D, 7F)
 The following finite field(s) will be applied:
 An electric field of             -0.0020 -0.0063 -0.0035
   320 basis functions,   504 primitive gaussians,   360 cartesian basis functions
    30 alpha electrons       30 beta electrons
       nuclear repulsion energy       360.3819767954 Hartrees.
 NAtoms=   20 NActive=   20 NUniq=   20 SFac= 1.00D+00 NAtFMM=   60 NAOKFM=F Big=F
 Integral buffers will be    131072 words long.
 Raffenetti 2 integral format.
 Two-electron integral symmetry is turned off.
 One-electron integrals computed using PRISM.
   1 Symmetry operations used in ECPInt.
 ECPInt:  NShTT=    9316 NPrTT=   27240 LenC2=    9174 LenP2D=   21654.
 LDataN:  DoStor=T MaxTD1= 6 Len=  172
 NBasis=   320 RedAO= T EigKep=  3.50D-05  NBF=   320
 NBsUse=   320 1.00D-06 EigRej= -1.00D+00 NBFU=   320
 The nuclear repulsion energy is now       359.2461263865 hartrees.
 Initial guess from the checkpoint file:  "checkpoint.chk"
 B after Tr=     0.000379   -0.005530   -0.001156
         Rot=    0.999998    0.001654    0.000390   -0.001171 Ang=   0.24 deg.
 Requested convergence on RMS density matrix=1.00D-08 within 128 cycles.
 Requested convergence on MAX density matrix=1.00D-06.
 Requested convergence on             energy=1.00D-06.
 No special actions if energy rises.
 SCF Done:  E(RB3LYP) =  -312.118493491     A.U. after    8 cycles
            NFock=  8  Conv=0.48D-08     -V/T= 2.0056
   1 Symmetry operations used in ECPInt.
 ECPInt:  NShTT=    9316 NPrTT=   27240 LenC2=    9174 LenP2D=   21654.
 LDataN:  DoStor=T MaxTD1= 7 Len=  274
 Calling FoFJK, ICntrl=      2127 FMM=F ISym2X=0 I1Cent= 0 IOpClX= 0 NMat=1 NMatS=1 NMatT=0.
 -------------------------------------------------------------------
 Center     Atomic                   Forces (Hartrees/Bohr)
 Number     Number              X              Y              Z
 -------------------------------------------------------------------
      1        6          -0.000028770   -0.000752173    0.000050284
      2        6          -0.000039359    0.000665733   -0.000063700
      3        6          -0.000060370    0.000260214   -0.000111266
      4        1           0.000055604    0.000023432    0.000046773
      5        1          -0.000071855   -0.000001442   -0.000063573
      6        6           0.000168051   -0.000175744    0.000103101
      7        6          -0.000004234   -0.000087473    0.000007771
      8        1           0.000066758    0.000016568   -0.000026973
      9        1          -0.000010938    0.000014504    0.000011831
     10        1          -0.000051658   -0.000021052    0.000068765
     11        6           0.000030230   -0.000203918   -0.000177267
     12        6           0.000007654    0.000070641   -0.000087954
     13        1          -0.000000766    0.000084731    0.000043400
     14        1           0.000013844    0.000064639    0.000007638
     15        6           0.000009849   -0.000155533   -0.000105968
     16        1          -0.000008760    0.000096673    0.000071330
     17        1          -0.000019126    0.000078161    0.000070247
     18        1          -0.000000087   -0.000015693    0.000049561
     19        1          -0.000010808    0.000009172    0.000062156
     20        1          -0.000045259    0.000028560    0.000043847
 -------------------------------------------------------------------
 Cartesian Forces:  Max     0.000752173 RMS     0.000151720
 -----------------------------------------------------------------------------------------------
                       Internal Coordinate Forces (Hartree/Bohr or radian)
  Cent   Atom   N1       Length/X         N2         Alpha/Y        N3         Beta/Z          J
 -----------------------------------------------------------------------------------------------
      1  C 
      2  C        1  -0.000006(     1)
      3  C        1  -0.000115(     2)      2  -0.000051(    20)
      4  H        1  -0.000017(     3)      2  -0.000090(    21)      3   0.000116(    38)     0
      5  H        1   0.000063(     4)      2   0.000079(    22)      3   0.000111(    39)     0
      6  C        2   0.000077(     5)      1   0.000249(    23)      3   0.000001(    40)     0
      7  C        3  -0.000028(     6)      1  -0.000013(    24)      2  -0.000068(    41)     0
      8  H        2  -0.000029(     7)      1  -0.000036(    25)      6   0.000126(    42)     0
      9  H        2   0.000021(     8)      1   0.000005(    26)      6  -0.000008(    43)     0
     10  H        3   0.000005(     9)      1  -0.000114(    27)      7  -0.000135(    44)     0
     11  C        7   0.000014(    10)      3  -0.000015(    28)      1  -0.000085(    45)     0
     12  C        6  -0.000072(    11)      2  -0.000413(    29)      1  -0.000028(    46)     0
     13  H        7   0.000008(    12)      3   0.000020(    30)     11  -0.000176(    47)     0
     14  H        6  -0.000018(    13)      2   0.000096(    31)     12  -0.000083(    48)     0
     15  C       12  -0.000050(    14)      6  -0.000369(    32)      2   0.000013(    49)     0
     16  H       11  -0.000003(    15)      7  -0.000017(    33)      3  -0.000028(    50)     0
     17  H       11   0.000007(    16)      7  -0.000040(    34)     16   0.000182(    51)     0
     18  H       12  -0.000016(    17)      6  -0.000007(    35)     15  -0.000093(    52)     0
     19  H       15   0.000023(    18)     12   0.000050(    36)      6   0.000051(    53)     0
     20  H       15   0.000020(    19)     12   0.000126(    37)     19  -0.000042(    54)     0
 -----------------------------------------------------------------------------------------------
 Internal  Forces:  Max     0.000412739 RMS     0.000107384

 GradGradGradGradGradGradGradGradGradGradGradGradGradGradGradGradGradGrad
 Berny optimization.
 Search for a local minimum.
 Step number   2 out of a maximum of   64
 All quantities printed in internal units (Hartrees-Bohrs-Radians)
 Update second derivatives using D2CorN and points    1    2
 DE= -1.08D-05 DEPred=-9.20D-06 R= 1.17D+00
 TightC=F SS=  1.41D+00  RLast= 1.69D-02 DXNew= 1.6818D-01 5.0671D-02
 Trust test= 1.17D+00 RLast= 1.69D-02 DXMaxT set to 1.00D-01
 ITU=  1  0
     Eigenvalues ---    0.02867   0.03412   0.04431   0.05471   0.08125
     Eigenvalues ---    0.09514   0.11193   0.11703   0.12737   0.13509
     Eigenvalues ---    0.16439   0.16929   0.17859   0.18003   0.18390
     Eigenvalues ---    0.18679   0.20139   0.20651   0.21061   0.22852
     Eigenvalues ---    0.23494   0.26976   0.27683   0.28662   0.30300
     Eigenvalues ---    0.31850   0.32632   0.33354   0.34102   0.34394
     Eigenvalues ---    0.34587   0.34683   0.34823   0.35023   0.35040
     Eigenvalues ---    0.35158   0.35569   0.35644   0.35697   0.35749
     Eigenvalues ---    0.39411   0.41900   0.42119   0.45459   0.48495
     Eigenvalues ---    0.50989   0.52684   0.54791   0.59988   0.60215
     Eigenvalues ---    0.63086   0.88024   1.19664   4.95563
 RFO step:  Lambda=-2.98368819D-06 EMin= 2.86699396D-02
 Quartic linear search produced a step of  0.20895.
 Variable       Old X    -DE/DX   Delta X   Delta X   Delta X     New X
                                 (Linear)    (Quad)   (Total)
    R2        2.92339  -0.00001   0.00003  -0.00019  -0.00016   2.92323
    R3        2.91894  -0.00012   0.00002  -0.00024  -0.00022   2.91872
    R4        2.05958  -0.00002  -0.00001  -0.00005  -0.00006   2.05952
    R5        2.06461   0.00006   0.00035  -0.00009   0.00026   2.06486
    R6        2.93103   0.00008   0.00012   0.00003   0.00014   2.93117
    R7        2.81726  -0.00003  -0.00001  -0.00009  -0.00011   2.81715
    R8        2.06303  -0.00003   0.00020  -0.00029  -0.00009   2.06294
    R9        2.05577   0.00002  -0.00008   0.00015   0.00007   2.05585
   R10        2.07266   0.00001   0.00023  -0.00020   0.00004   2.07270
   R11        2.50971   0.00001   0.00005  -0.00001   0.00003   2.50974
   R12        2.83196  -0.00007   0.00027  -0.00054  -0.00026   2.83169
   R13        2.05616   0.00001  -0.00005   0.00007   0.00003   2.05619
   R14        2.06655  -0.00002  -0.00003  -0.00004  -0.00007   2.06648
   R15        2.50734  -0.00005  -0.00007  -0.00005  -0.00011   2.50723
   R16        2.04554  -0.00000  -0.00001   0.00000  -0.00001   2.04553
   R17        2.04786   0.00001   0.00005  -0.00002   0.00003   2.04789
   R18        2.05388  -0.00002  -0.00006   0.00000  -0.00005   2.05383
   R19        2.04651   0.00002   0.00002   0.00006   0.00008   2.04659
   R20        2.04451   0.00002  -0.00006   0.00013   0.00007   2.04457
    A3        1.55085  -0.00005  -0.00002   0.00004   0.00001   1.55087
    A4        1.93873  -0.00009  -0.00011  -0.00074  -0.00084   1.93789
    A5        2.05980   0.00008   0.00010   0.00071   0.00081   2.06061
    A6        1.55986   0.00025  -0.00025   0.00041   0.00016   1.56002
    A7        2.12636  -0.00001  -0.00006   0.00016   0.00010   2.12646
    A8        1.95644  -0.00004   0.00013  -0.00029  -0.00016   1.95628
    A9        2.04913   0.00000   0.00005   0.00017   0.00022   2.04936
   A10        1.90812  -0.00011   0.00012  -0.00049  -0.00037   1.90775
   A11        2.20531  -0.00001   0.00004  -0.00013  -0.00009   2.20522
   A12        2.05122  -0.00041   0.00013  -0.00136  -0.00123   2.05000
   A13        2.01109   0.00002  -0.00002   0.00014   0.00012   2.01121
   A14        2.00471   0.00010  -0.00028   0.00109   0.00082   2.00553
   A15        2.22595  -0.00037   0.00005  -0.00088  -0.00083   2.22511
   A16        2.11821  -0.00002  -0.00000  -0.00001  -0.00001   2.11820
   A17        2.12871  -0.00004  -0.00006  -0.00013  -0.00019   2.12851
   A18        1.99690  -0.00001  -0.00005   0.00033   0.00028   1.99718
   A19        2.14365   0.00005   0.00021   0.00004   0.00025   2.14390
   A20        2.11120   0.00013  -0.00003   0.00018   0.00014   2.11134
    D4       -1.96775   0.00012   0.00006   0.00111   0.00117  -1.96658
    D5        2.10609   0.00011   0.00009   0.00128   0.00137   2.10745
    D6        0.33735   0.00000   0.00090  -0.00119  -0.00029   0.33706
    D7       -2.51690  -0.00007  -0.00078   0.00096   0.00018  -2.51672
    D8       -1.96504   0.00013  -0.00004   0.00083   0.00079  -1.96425
    D9        2.11221  -0.00001  -0.00039   0.00067   0.00027   2.11248
   D10       -2.22736  -0.00014  -0.00016  -0.00050  -0.00066  -2.22802
   D11       -0.10415  -0.00009   0.00017  -0.00029  -0.00012  -0.10427
   D12        1.71061  -0.00003  -0.00072   0.00060  -0.00012   1.71049
   D13       -3.14665  -0.00018  -0.00125  -0.00141  -0.00266  -3.14930
   D14        2.25592  -0.00008   0.00012  -0.00045  -0.00033   2.25559
   D15        0.24915   0.00001   0.00043   0.00062   0.00105   0.25020
   D16       -3.15595  -0.00003  -0.00165  -0.00248  -0.00413  -3.16008
   D17        3.17343   0.00018   0.00189   0.00287   0.00476   3.17819
   D18        3.11327  -0.00009  -0.00099  -0.00038  -0.00137   3.11190
   D19       -0.01297   0.00005  -0.00027   0.00063   0.00036  -0.01261
   D20        3.12280  -0.00004  -0.00078  -0.00050  -0.00128   3.12153
         Item               Value     Threshold  Converged?
 Maximum Force            0.000413     0.000450     YES
 RMS     Force            0.000107     0.000300     YES
 Maximum Displacement     0.004756     0.001800     NO 
 RMS     Displacement     0.001063     0.001200     YES
 Predicted change in Energy=-1.588374D-06
 GradGradGradGradGradGradGradGradGradGradGradGradGradGradGradGradGradGrad

 ---------------------------------------------------------------------------------------------------
                            Z-MATRIX (ANGSTROMS AND DEGREES)
   CD    Cent   Atom    N1       Length/X        N2       Alpha/Y        N3        Beta/Z          J
 ---------------------------------------------------------------------------------------------------
      1      1  C 
      2      2  C        1   1.546905(     1)
      3      3  C        1   1.544519(     2)      2   88.858(    20)
      4      4  H        1   1.089852(     3)      2  111.033(    21)      3 -112.677(    38)      0
      5      5  H        1   1.092679(     4)      2  118.064(    22)      3  120.748(    39)      0
      6      6  C        2   1.551110(     5)      1   89.383(    23)      3   19.312(    40)      0
      7      7  C        3   1.490774(     6)      1  121.837(    24)      2 -144.197(    41)      0
      8      8  H        2   1.091659(     7)      1  112.087(    25)      6 -112.544(    42)      0
      9      9  H        2   1.087907(     8)      1  117.419(    26)      6  121.036(    43)      0
     10     10  H        3   1.096823(     9)      1  109.306(    27)      7 -127.656(    44)      0
     11     11  C        7   1.328098(    10)      3  126.350(    28)      1   -5.974(    45)      0
     12     12  C        6   1.498467(    11)      2  117.456(    29)      1   98.004(    46)      0
     13     13  H        7   1.088091(    12)      3  115.234(    30)     11 -180.442(    47)      0
     14     14  H        6   1.093534(    13)      2  114.908(    31)     12  129.236(    48)      0
     15     15  C       12   1.326770(    14)      6  127.490(    32)      2   14.336(    49)      0
     16     16  H       11   1.082450(    15)      7  121.364(    33)      3 -181.059(    50)      0
     17     17  H       11   1.083696(    16)      7  121.955(    34)     16  182.097(    51)      0
     18     18  H       12   1.086838(    17)      6  114.430(    35)     15  178.299(    52)      0
     19     19  H       15   1.083011(    18)     12  122.837(    36)      6   -0.722(    53)      0
     20     20  H       15   1.081942(    19)     12  120.971(    37)     19  178.850(    54)      0
 ---------------------------------------------------------------------------------------------------
                         Z-Matrix orientation:                         
 ---------------------------------------------------------------------
 Center     Atomic      Atomic             Coordinates (Angstroms)
 Number     Number       Type             X           Y           Z
 ---------------------------------------------------------------------
      1          6           0        0.000000    0.000000    0.000000
      2          6           0        0.000000    0.000000    1.546905
      3          6           0        1.544213    0.000000    0.030779
      4          1           0       -0.392181    0.938602   -0.391148
      5          1           0       -0.492963   -0.828659   -0.514063
      6          6           0        1.463744    0.512951    1.530190
      7          6           0        2.350920    0.740890   -0.980513
      8          1           0       -0.057015   -1.009941    1.957375
      9          1           0       -0.743526    0.616222    2.047887
     10          1           0        1.906098   -1.034603    0.071481
     11          6           0        1.883632    1.370112   -2.052692
     12          6           0        1.682143    1.984730    1.707879
     13          1           0        3.423090    0.758797   -0.795929
     14          1           0        2.146036   -0.019556    2.198569
     15          6           0        0.807014    2.884926    2.136967
     16          1           0        2.543888    1.899392   -2.727691
     17          1           0        0.824475    1.409064   -2.278667
     18          1           0        2.689231    2.320968    1.475643
     19          1           0       -0.211248    2.632401    2.405829
     20          1           0        1.088240    3.923091    2.254114
 ---------------------------------------------------------------------
                    Distance matrix (angstroms):
                    1          2          3          4          5
     1  C    0.000000
     2  C    1.546905   0.000000
     3  C    1.544519   2.164078   0.000000
     4  H    1.089852   2.188796   2.192856   0.000000
     5  H    1.092679   2.275363   2.265748   1.774395   0.000000
     6  C    2.178794   1.551110   1.586766   2.705027   3.131707
     7  C    2.652763   3.530380   1.490774   2.812658   3.281574
     8  H    2.203304   1.091659   2.701053   3.069971   2.516132
     9  H    2.264156   1.087907   3.111624   2.485209   2.951957
    10  H    2.169960   2.623069   1.096823   3.064254   2.478058
    11  C    3.104645   4.287467   2.516597   2.850659   3.584714
    12  C    3.112171   2.606659   2.602084   3.130992   4.193240
    13  H    3.595389   4.216894   2.188470   3.840895   4.234966
    14  H    3.072386   2.242882   2.249864   3.750632   3.870056
    15  C    3.679769   3.053235   3.647231   3.408462   4.744324
    16  H    4.185613   5.324587   3.495168   3.873377   4.643799
    17  H    2.803131   4.159354   2.799469   2.294410   3.139566
    18  H    3.846606   3.553018   2.964050   3.858878   4.899534
    19  H    3.572418   2.777033   3.956266   3.274869   4.536967
    20  H    4.653594   4.132197   4.532304   4.253966   5.722074
                    6          7          8          9         10
     6  C    0.000000
     7  C    2.672577   0.000000
     8  H    2.194173   4.182673   0.000000
     9  H    2.269518   4.331552   1.767455   0.000000
    10  H    2.172195   2.111146   2.722318   3.694849   0.000000
    11  C    3.707839   1.328098   5.050882   4.927987   3.208625
    12  C    1.498467   3.036750   3.472027   2.805760   3.441558
    13  H    3.051280   1.088091   4.777055   5.046613   2.503987
    14  H    1.093534   3.275182   2.427441   2.962513   2.369049
    15  C    2.534904   4.086468   3.993594   2.749387   4.564748
    16  H    4.606352   2.105230   6.097439   5.937993   4.104932
    17  H    3.964729   2.112272   4.957083   4.669721   3.558738
    18  H    2.184884   2.940034   4.343833   3.875235   3.720863
    19  H    2.839790   4.648637   3.673085   2.115755   4.835209
    20  H    3.506298   4.709944   5.072916   3.785932   5.478276
                   11         12         13         14         15
    11  C    0.000000
    12  C    3.815789   0.000000
    13  H    2.079204   3.286771   0.000000
    14  H    4.480318   2.114979   3.347196   0.000000
    15  C    4.583341   1.326770   4.468351   3.198873   0.000000
    16  H    1.082450   4.519311   2.409493   5.301763   5.258604
    17  H    1.083696   4.118195   3.061725   4.881918   4.655782
    18  H    3.741960   1.086838   2.852887   2.509130   2.073196
    19  H    5.085303   2.119325   5.193270   3.554239   1.083011
    20  H    5.069412   2.099604   4.976650   4.082460   1.081942
                   16         17         18         19         20
    16  H    0.000000
    17  H    1.843482   0.000000
    18  H    4.226922   4.289957   0.000000
    19  H    5.872061   4.951139   3.061865   0.000000
    20  H    5.570696   5.189991   2.394993   1.837816   0.000000
 Symmetry turned off by external request.
 Stoichiometry    C8H12
 Framework group  C1[X(C8H12)]
 Deg. of freedom    54
 Full point group                 C1      NOp   1
 Rotational constants (GHZ):           2.8022290           1.6930717           1.3165611
 Standard basis: def2TZVP (5D, 7F)
 The following finite field(s) will be applied:
 An electric field of             -0.0020 -0.0063 -0.0035
   320 basis functions,   504 primitive gaussians,   360 cartesian basis functions
    30 alpha electrons       30 beta electrons
       nuclear repulsion energy       360.4115063802 Hartrees.
 NAtoms=   20 NActive=   20 NUniq=   20 SFac= 1.00D+00 NAtFMM=   60 NAOKFM=F Big=F
 Integral buffers will be    131072 words long.
 Raffenetti 2 integral format.
 Two-electron integral symmetry is turned off.
 One-electron integrals computed using PRISM.
   1 Symmetry operations used in ECPInt.
 ECPInt:  NShTT=    9316 NPrTT=   27240 LenC2=    9174 LenP2D=   21654.
 LDataN:  DoStor=T MaxTD1= 6 Len=  172
 NBasis=   320 RedAO= T EigKep=  3.50D-05  NBF=   320
 NBsUse=   320 1.00D-06 EigRej= -1.00D+00 NBFU=   320
 The nuclear repulsion energy is now       359.2757781646 hartrees.
 Initial guess from the checkpoint file:  "checkpoint.chk"
 B after Tr=     0.000021   -0.001118   -0.000337
         Rot=    1.000000   -0.000167    0.000091   -0.000233 Ang=  -0.03 deg.
 Requested convergence on RMS density matrix=1.00D-08 within 128 cycles.
 Requested convergence on MAX density matrix=1.00D-06.
 Requested convergence on             energy=1.00D-06.
 No special actions if energy rises.
 SCF Done:  E(RB3LYP) =  -312.118495228     A.U. after    7 cycles
            NFock=  7  Conv=0.39D-08     -V/T= 2.0056
   1 Symmetry operations used in ECPInt.
 ECPInt:  NShTT=    9316 NPrTT=   27240 LenC2=    9174 LenP2D=   21654.
 LDataN:  DoStor=T MaxTD1= 7 Len=  274
 Calling FoFJK, ICntrl=      2127 FMM=F ISym2X=0 I1Cent= 0 IOpClX= 0 NMat=1 NMatS=1 NMatT=0.
 -------------------------------------------------------------------
 Center     Atomic                   Forces (Hartrees/Bohr)
 Number     Number              X              Y              Z
 -------------------------------------------------------------------
      1        6          -0.000070277   -0.000585664    0.000024607
      2        6           0.000046846    0.000464118    0.000012500
      3        6           0.000011164    0.000010650   -0.000066233
      4        1          -0.000005589    0.000027085   -0.000001142
      5        1           0.000012491    0.000035600    0.000015547
      6        6          -0.000018701   -0.000038175   -0.000039471
      7        6           0.000002879    0.000039092    0.000059380
      8        1          -0.000004978   -0.000020601   -0.000002087
      9        1           0.000015089   -0.000037349   -0.000012128
     10        1          -0.000011387   -0.000016667    0.000012076
     11        6          -0.000004746   -0.000009185   -0.000023829
     12        6           0.000044670    0.000048002    0.000002925
     13        1          -0.000004382    0.000008752    0.000006399
     14        1          -0.000005814    0.000007496   -0.000009529
     15        6           0.000012877    0.000016622   -0.000006564
     16        1           0.000001972   -0.000007890   -0.000001183
     17        1           0.000000456    0.000001998    0.000006137
     18        1          -0.000014091    0.000033646    0.000004992
     19        1           0.000025248    0.000009088    0.000000264
     20        1          -0.000033729    0.000013382    0.000017339
 -------------------------------------------------------------------
 Cartesian Forces:  Max     0.000585664 RMS     0.000099511
 -----------------------------------------------------------------------------------------------
                       Internal Coordinate Forces (Hartree/Bohr or radian)
  Cent   Atom   N1       Length/X         N2         Alpha/Y        N3         Beta/Z          J
 -----------------------------------------------------------------------------------------------
      1  C 
      2  C        1  -0.000032(     1)
      3  C        1  -0.000004(     2)      2  -0.000068(    20)
      4  H        1   0.000026(     3)      2  -0.000018(    21)      3   0.000010(    38)     0
      5  H        1  -0.000040(     4)      2   0.000008(    22)      3   0.000014(    39)     0
      6  C        2   0.000040(     5)      1  -0.000095(    23)      3   0.000292(    40)     0
      7  C        3  -0.000018(     6)      1   0.000022(    24)      2   0.000041(    41)     0
      8  H        2   0.000019(     7)      1  -0.000020(    25)      6  -0.000007(    42)     0
      9  H        2  -0.000037(     8)      1   0.000011(    26)      6   0.000035(    43)     0
     10  H        3   0.000012(     9)      1  -0.000033(    27)      7  -0.000023(    44)     0
     11  C        7   0.000009(    10)      3  -0.000006(    28)      1  -0.000056(    45)     0
     12  C        6   0.000126(    11)      2  -0.000021(    29)      1   0.000049(    46)     0
     13  H        7  -0.000003(    12)      3  -0.000002(    30)     11  -0.000021(    47)     0
     14  H        6  -0.000013(    13)      2   0.000006(    31)     12   0.000002(    48)     0
     15  C       12   0.000027(    14)      6   0.000003(    32)      2   0.000028(    49)     0
     16  H       11  -0.000002(    15)      7  -0.000006(    33)      3   0.000022(    50)     0
     17  H       11  -0.000002(    16)      7  -0.000008(    34)     16   0.000009(    51)     0
     18  H       12  -0.000004(    17)      6   0.000075(    35)     15   0.000008(    52)     0
     19  H       15  -0.000026(    18)     12   0.000009(    36)      6   0.000002(    53)     0
     20  H       15   0.000006(    19)     12   0.000081(    37)     19  -0.000008(    54)     0
 -----------------------------------------------------------------------------------------------
 Internal  Forces:  Max     0.000291673 RMS     0.000052669

 GradGradGradGradGradGradGradGradGradGradGradGradGradGradGradGradGradGrad
 Berny optimization.
 Search for a local minimum.
 Step number   3 out of a maximum of   64
 All quantities printed in internal units (Hartrees-Bohrs-Radians)
 Update second derivatives using D2CorN and points    1    2    3
 DE= -1.74D-06 DEPred=-1.59D-06 R= 1.09D+00
 TightC=F SS=  1.41D+00  RLast= 7.81D-03 DXNew= 1.6818D-01 2.3439D-02
 Trust test= 1.09D+00 RLast= 7.81D-03 DXMaxT set to 1.00D-01
 ITU=  1  1  0
     Eigenvalues ---    0.02858   0.03530   0.04113   0.05505   0.08136
     Eigenvalues ---    0.09613   0.11162   0.11693   0.12657   0.13504
     Eigenvalues ---    0.16438   0.16934   0.17869   0.18015   0.18396
     Eigenvalues ---    0.18701   0.20141   0.20648   0.21077   0.22803
     Eigenvalues ---    0.23437   0.26954   0.27676   0.28611   0.30300
     Eigenvalues ---    0.31850   0.32683   0.33352   0.34100   0.34392
     Eigenvalues ---    0.34606   0.34687   0.34826   0.35023   0.35045
     Eigenvalues ---    0.35157   0.35569   0.35648   0.35697   0.35749
     Eigenvalues ---    0.39393   0.41899   0.42123   0.45461   0.48492
     Eigenvalues ---    0.50967   0.52663   0.54791   0.59987   0.60219
     Eigenvalues ---    0.63126   0.88057   1.19615   4.95565
 RFO step:  Lambda=-5.05888493D-07 EMin= 2.85761227D-02
 Quartic linear search produced a step of  0.01829.
 Variable       Old X    -DE/DX   Delta X   Delta X   Delta X     New X
                                 (Linear)    (Quad)   (Total)
    R2        2.92323  -0.00003  -0.00000  -0.00008  -0.00009   2.92314
    R3        2.91872  -0.00000  -0.00000  -0.00002  -0.00003   2.91869
    R4        2.05952   0.00003  -0.00000   0.00008   0.00008   2.05960
    R5        2.06486  -0.00004   0.00000  -0.00011  -0.00011   2.06476
    R6        2.93117   0.00004   0.00000   0.00010   0.00010   2.93127
    R7        2.81715  -0.00002  -0.00000  -0.00006  -0.00006   2.81709
    R8        2.06294   0.00002  -0.00000   0.00006   0.00005   2.06299
    R9        2.05585  -0.00004   0.00000  -0.00012  -0.00011   2.05573
   R10        2.07270   0.00001   0.00000   0.00004   0.00005   2.07274
   R11        2.50974   0.00001   0.00000   0.00002   0.00002   2.50976
   R12        2.83169   0.00013  -0.00000   0.00041   0.00040   2.83210
   R13        2.05619  -0.00000   0.00000  -0.00001  -0.00001   2.05619
   R14        2.06648  -0.00001  -0.00000  -0.00004  -0.00004   2.06644
   R15        2.50723   0.00003  -0.00000   0.00004   0.00004   2.50728
   R16        2.04553  -0.00000  -0.00000  -0.00001  -0.00001   2.04553
   R17        2.04789  -0.00000   0.00000  -0.00000  -0.00000   2.04788
   R18        2.05383  -0.00000  -0.00000  -0.00001  -0.00001   2.05381
   R19        2.04659  -0.00003   0.00000  -0.00008  -0.00008   2.04652
   R20        2.04457   0.00001   0.00000   0.00002   0.00002   2.04460
    A3        1.55087  -0.00007   0.00000  -0.00008  -0.00008   1.55078
    A4        1.93789  -0.00002  -0.00002  -0.00011  -0.00013   1.93776
    A5        2.06061   0.00001   0.00001   0.00009   0.00011   2.06072
    A6        1.56002  -0.00010   0.00000  -0.00027  -0.00026   1.55976
    A7        2.12646   0.00002   0.00000   0.00008   0.00008   2.12654
    A8        1.95628  -0.00002  -0.00000  -0.00008  -0.00008   1.95620
    A9        2.04936   0.00001   0.00000   0.00009   0.00010   2.04945
   A10        1.90775  -0.00003  -0.00001   0.00006   0.00005   1.90780
   A11        2.20522  -0.00001  -0.00000  -0.00002  -0.00002   2.20519
   A12        2.05000  -0.00002  -0.00002   0.00023   0.00021   2.05021
   A13        2.01121  -0.00000   0.00000   0.00001   0.00001   2.01122
   A14        2.00553   0.00001   0.00001  -0.00007  -0.00006   2.00547
   A15        2.22511   0.00000  -0.00002   0.00006   0.00005   2.22516
   A16        2.11820  -0.00001  -0.00000  -0.00001  -0.00001   2.11818
   A17        2.12851  -0.00001  -0.00000  -0.00004  -0.00004   2.12847
   A18        1.99718   0.00007   0.00001   0.00016   0.00016   1.99734
   A19        2.14390   0.00001   0.00000  -0.00003  -0.00002   2.14388
   A20        2.11134   0.00008   0.00000   0.00022   0.00022   2.11156
    D4       -1.96658   0.00001   0.00002   0.00011   0.00014  -1.96645
    D5        2.10745   0.00001   0.00002   0.00012   0.00014   2.10759
    D6        0.33706   0.00029  -0.00001   0.00115   0.00114   0.33821
    D7       -2.51672   0.00004   0.00000  -0.00055  -0.00055  -2.51727
    D8       -1.96425  -0.00001   0.00001   0.00006   0.00007  -1.96418
    D9        2.11248   0.00003   0.00000   0.00004   0.00004   2.11252
   D10       -2.22802  -0.00002  -0.00001  -0.00064  -0.00065  -2.22868
   D11       -0.10427  -0.00006  -0.00000  -0.00113  -0.00113  -0.10540
   D12        1.71049   0.00005  -0.00000  -0.00087  -0.00087   1.70962
   D13       -3.14930  -0.00002  -0.00005  -0.00007  -0.00012  -3.14943
   D14        2.25559   0.00000  -0.00001   0.00004   0.00003   2.25561
   D15        0.25020   0.00003   0.00002   0.00061   0.00063   0.25083
   D16       -3.16008   0.00002  -0.00008  -0.00034  -0.00042  -3.16050
   D17        3.17819   0.00001   0.00009   0.00069   0.00077   3.17896
   D18        3.11190   0.00001  -0.00003  -0.00054  -0.00057   3.11134
   D19       -0.01261   0.00000   0.00001  -0.00030  -0.00029  -0.01290
   D20        3.12153  -0.00001  -0.00002  -0.00040  -0.00042   3.12110
         Item               Value     Threshold  Converged?
 Maximum Force            0.000292     0.000450     YES
 RMS     Force            0.000053     0.000300     YES
 Maximum Displacement     0.001143     0.001800     YES
 RMS     Displacement     0.000344     0.001200     YES
 Predicted change in Energy=-2.498591D-07
 Optimization completed.
    -- Stationary point found.
                       ----------------------------
                       !   Optimized Parameters   !
                       ! (Angstroms and Degrees)  !
 ----------------------                            ----------------------
 !      Name          Value   Derivative information (Atomic Units)     !
 ------------------------------------------------------------------------
 !       R2          1.5469   -DE/DX =    0.0                           !
 !       R3          1.5445   -DE/DX =    0.0                           !
 !       R4          1.0899   -DE/DX =    0.0                           !
 !       R5          1.0927   -DE/DX =    0.0                           !
 !       R6          1.5511   -DE/DX =    0.0                           !
 !       R7          1.4908   -DE/DX =    0.0                           !
 !       R8          1.0917   -DE/DX =    0.0                           !
 !       R9          1.0879   -DE/DX =    0.0                           !
 !       R10         1.0968   -DE/DX =    0.0                           !
 !       R11         1.3281   -DE/DX =    0.0                           !
 !       R12         1.4985   -DE/DX =    0.0001                        !
 !       R13         1.0881   -DE/DX =    0.0                           !
 !       R14         1.0935   -DE/DX =    0.0                           !
 !       R15         1.3268   -DE/DX =    0.0                           !
 !       R16         1.0825   -DE/DX =    0.0                           !
 !       R17         1.0837   -DE/DX =    0.0                           !
 !       R18         1.0868   -DE/DX =    0.0                           !
 !       R19         1.083    -DE/DX =    0.0                           !
 !       R20         1.0819   -DE/DX =    0.0                           !
 !       A3         88.8582   -DE/DX =   -0.0001                        !
 !       A4        111.0327   -DE/DX =    0.0                           !
 !       A5        118.0642   -DE/DX =    0.0                           !
 !       A6         89.3826   -DE/DX =   -0.0001                        !
 !       A7        121.8372   -DE/DX =    0.0                           !
 !       A8        112.0865   -DE/DX =    0.0                           !
 !       A9        117.4194   -DE/DX =    0.0                           !
 !       A10       109.306    -DE/DX =    0.0                           !
 !       A11       126.3497   -DE/DX =    0.0                           !
 !       A12       117.4562   -DE/DX =    0.0                           !
 !       A13       115.234    -DE/DX =    0.0                           !
 !       A14       114.9082   -DE/DX =    0.0                           !
 !       A15       127.4896   -DE/DX =    0.0                           !
 !       A16       121.3636   -DE/DX =    0.0                           !
 !       A17       121.9549   -DE/DX =    0.0                           !
 !       A18       114.4298   -DE/DX =    0.0001                        !
 !       A19       122.8365   -DE/DX =    0.0                           !
 !       A20       120.9711   -DE/DX =    0.0001                        !
 !       D4       -112.6769   -DE/DX =    0.0                           !
 !       D5        120.7481   -DE/DX =    0.0                           !
 !       D6         19.3124   -DE/DX =    0.0003                        !
 !       D7       -144.1973   -DE/DX =    0.0                           !
 !       D8       -112.5435   -DE/DX =    0.0                           !
 !       D9        121.0362   -DE/DX =    0.0                           !
 !       D10      -127.6564   -DE/DX =    0.0                           !
 !       D11        -5.974    -DE/DX =   -0.0001                        !
 !       D12        98.0039   -DE/DX =    0.0                           !
 !       D13      -180.4418   -DE/DX =    0.0                           !
 !       D14       129.2355   -DE/DX =    0.0                           !
 !       D15        14.3355   -DE/DX =    0.0                           !
 !       D16      -181.0592   -DE/DX =    0.0                           !
 !       D17       182.0968   -DE/DX =    0.0                           !
 !       D18       178.2988   -DE/DX =    0.0                           !
 !       D19        -0.7224   -DE/DX =    0.0                           !
 !       D20       178.8503   -DE/DX =    0.0                           !
 ------------------------------------------------------------------------
 GradGradGradGradGradGradGradGradGradGradGradGradGradGradGradGradGradGrad

 ---------------------------------------------------------------------------------------------------
                            Z-MATRIX (ANGSTROMS AND DEGREES)
   CD    Cent   Atom    N1       Length/X        N2       Alpha/Y        N3        Beta/Z          J
 ---------------------------------------------------------------------------------------------------
      1      1  C 
      2      2  C        1   1.546905(     1)
      3      3  C        1   1.544519(     2)      2   88.858(    20)
      4      4  H        1   1.089852(     3)      2  111.033(    21)      3 -112.677(    38)      0
      5      5  H        1   1.092679(     4)      2  118.064(    22)      3  120.748(    39)      0
      6      6  C        2   1.551110(     5)      1   89.383(    23)      3   19.312(    40)      0
      7      7  C        3   1.490774(     6)      1  121.837(    24)      2 -144.197(    41)      0
      8      8  H        2   1.091659(     7)      1  112.087(    25)      6 -112.544(    42)      0
      9      9  H        2   1.087907(     8)      1  117.419(    26)      6  121.036(    43)      0
     10     10  H        3   1.096823(     9)      1  109.306(    27)      7 -127.656(    44)      0
     11     11  C        7   1.328098(    10)      3  126.350(    28)      1   -5.974(    45)      0
     12     12  C        6   1.498467(    11)      2  117.456(    29)      1   98.004(    46)      0
     13     13  H        7   1.088091(    12)      3  115.234(    30)     11 -180.442(    47)      0
     14     14  H        6   1.093534(    13)      2  114.908(    31)     12  129.236(    48)      0
     15     15  C       12   1.326770(    14)      6  127.490(    32)      2   14.336(    49)      0
     16     16  H       11   1.082450(    15)      7  121.364(    33)      3 -181.059(    50)      0
     17     17  H       11   1.083696(    16)      7  121.955(    34)     16  182.097(    51)      0
     18     18  H       12   1.086838(    17)      6  114.430(    35)     15  178.299(    52)      0
     19     19  H       15   1.083011(    18)     12  122.837(    36)      6   -0.722(    53)      0
     20     20  H       15   1.081942(    19)     12  120.971(    37)     19  178.850(    54)      0
 ---------------------------------------------------------------------------------------------------
                         Z-Matrix orientation:                         
 ---------------------------------------------------------------------
 Center     Atomic      Atomic             Coordinates (Angstroms)
 Number     Number       Type             X           Y           Z
 ---------------------------------------------------------------------
      1          6           0        0.000000    0.000000    0.000000
      2          6           0        0.000000    0.000000    1.546905
      3          6           0        1.544213    0.000000    0.030779
      4          1           0       -0.392181    0.938602   -0.391148
      5          1           0       -0.492963   -0.828659   -0.514063
      6          6           0        1.463744    0.512951    1.530190
      7          6           0        2.350920    0.740890   -0.980513
      8          1           0       -0.057015   -1.009941    1.957375
      9          1           0       -0.743526    0.616222    2.047887
     10          1           0        1.906098   -1.034603    0.071481
     11          6           0        1.883632    1.370112   -2.052692
     12          6           0        1.682143    1.984730    1.707879
     13          1           0        3.423090    0.758797   -0.795929
     14          1           0        2.146036   -0.019556    2.198569
     15          6           0        0.807014    2.884926    2.136967
     16          1           0        2.543888    1.899392   -2.727691
     17          1           0        0.824475    1.409064   -2.278667
     18          1           0        2.689231    2.320968    1.475643
     19          1           0       -0.211248    2.632401    2.405829
     20          1           0        1.088240    3.923091    2.254114
 ---------------------------------------------------------------------
                    Distance matrix (angstroms):
                    1          2          3          4          5
     1  C    0.000000
     2  C    1.546905   0.000000
     3  C    1.544519   2.164078   0.000000
     4  H    1.089852   2.188796   2.192856   0.000000
     5  H    1.092679   2.275363   2.265748   1.774395   0.000000
     6  C    2.178794   1.551110   1.586766   2.705027   3.131707
     7  C    2.652763   3.530380   1.490774   2.812658   3.281574
     8  H    2.203304   1.091659   2.701053   3.069971   2.516132
     9  H    2.264156   1.087907   3.111624   2.485209   2.951957
    10  H    2.169960   2.623069   1.096823   3.064254   2.478058
    11  C    3.104645   4.287467   2.516597   2.850659   3.584714
    12  C    3.112171   2.606659   2.602084   3.130992   4.193240
    13  H    3.595389   4.216894   2.188470   3.840895   4.234966
    14  H    3.072386   2.242882   2.249864   3.750632   3.870056
    15  C    3.679769   3.053235   3.647231   3.408462   4.744324
    16  H    4.185613   5.324587   3.495168   3.873377   4.643799
    17  H    2.803131   4.159354   2.799469   2.294410   3.139566
    18  H    3.846606   3.553018   2.964050   3.858878   4.899534
    19  H    3.572418   2.777033   3.956266   3.274869   4.536967
    20  H    4.653594   4.132197   4.532304   4.253966   5.722074
                    6          7          8          9         10
     6  C    0.000000
     7  C    2.672577   0.000000
     8  H    2.194173   4.182673   0.000000
     9  H    2.269518   4.331552   1.767455   0.000000
    10  H    2.172195   2.111146   2.722318   3.694849   0.000000
    11  C    3.707839   1.328098   5.050882   4.927987   3.208625
    12  C    1.498467   3.036750   3.472027   2.805760   3.441558
    13  H    3.051280   1.088091   4.777055   5.046613   2.503987
    14  H    1.093534   3.275182   2.427441   2.962513   2.369049
    15  C    2.534904   4.086468   3.993594   2.749387   4.564748
    16  H    4.606352   2.105230   6.097439   5.937993   4.104932
    17  H    3.964729   2.112272   4.957083   4.669721   3.558738
    18  H    2.184884   2.940034   4.343833   3.875235   3.720863
    19  H    2.839790   4.648637   3.673085   2.115755   4.835209
    20  H    3.506298   4.709944   5.072916   3.785932   5.478276
                   11         12         13         14         15
    11  C    0.000000
    12  C    3.815789   0.000000
    13  H    2.079204   3.286771   0.000000
    14  H    4.480318   2.114979   3.347196   0.000000
    15  C    4.583341   1.326770   4.468351   3.198873   0.000000
    16  H    1.082450   4.519311   2.409493   5.301763   5.258604
    17  H    1.083696   4.118195   3.061725   4.881918   4.655782
    18  H    3.741960   1.086838   2.852887   2.509130   2.073196
    19  H    5.085303   2.119325   5.193270   3.554239   1.083011
    20  H    5.069412   2.099604   4.976650   4.082460   1.081942
                   16         17         18         19         20
    16  H    0.000000
    17  H    1.843482   0.000000
    18  H    4.226922   4.289957   0.000000
    19  H    5.872061   4.951139   3.061865   0.000000
    20  H    5.570696   5.189991   2.394993   1.837816   0.000000
[...]
 .00780171,0.00758206,-0.00056428,0.00010830,-0.00039296,0.00014814,-0.
 00003266,-0.00172620,0.00061430,-0.00007753,0.00063851,-0.00187525,-0.
 02961775,0.01002708,-0.00005036,0.00040379,0.00005616,0.04974293,0.000
 96369,0.00260302,-0.00114130,-0.00888741,-0.27142348,0.08849420,-0.000
 00532,-0.00025591,-0.00037947,-0.00017133,0.00123859,-0.00052897,0.000
 00431,0.00128289,0.00070634,0.00061297,-0.01017746,0.00263419,-0.00017
 162,0.00019169,0.00021662,0.01135615,0.29209210,-0.00008733,0.03083186
 ,-0.01253071,0.00742773,0.08826169,-0.08083409,-0.00111535,-0.00018784
 ,-0.00010532,0.00187653,-0.00031174,-0.00578567,-0.00098057,-0.0004944
 4,0.00254360,-0.00016655,-0.00597299,0.00146059,0.00037561,-0.00027284
 ,-0.00010228,-0.00570346,-0.09703541,0.08803679,0.00347885,-0.00560720
 ,-0.00077611,-0.17285996,0.10552383,0.07986978,-0.00311334,-0.00186769
 ,0.00207839,0.00074015,-0.00009779,0.00095814,-0.00011248,-0.00029051,
 -0.00082414,-0.01346147,0.01712468,0.01012695,0.00074026,0.00130131,0.
 00048677,0.00198809,-0.00092631,-0.00141089,0.18167264,-0.00236079,0.0
 0000097,0.00234317,0.10657165,-0.13846259,-0.07150661,-0.00147162,-0.0
 0016938,0.00153189,-0.00005482,0.00101761,0.00016167,0.00016681,0.0000
 8972,-0.00038810,-0.00565163,0.00892942,0.00566904,-0.00033666,0.00053
 852,0.00050219,0.02020994,-0.01719629,-0.01343364,-0.11543934,0.148808
 76,0.01858863,-0.01698787,-0.00854534,0.07967869,-0.07053262,-0.102051
 60,0.00177205,0.00136305,-0.00438466,-0.00069479,0.00003074,0.00258480
 ,0.00083274,-0.00025978,-0.00236375,-0.00104956,0.00599844,-0.00026862
 ,0.00136414,-0.00067069,0.00060133,-0.00891829,0.00698524,0.00638419,-
 0.09101583,0.07581019,0.10738414,-0.01376693,0.03060601,-0.00270430,0.
 00065901,-0.00030380,-0.00121684,-0.07399454,0.07424985,0.00112441,-0.
 00605778,0.00000252,0.00160674,0.00201065,-0.00044650,-0.00085072,0.00
 169030,-0.00432958,-0.00164580,0.00719539,-0.01730578,0.00128668,-0.00
 011794,-0.00018601,0.00064560,0.00003156,-0.00029014,0.00004922,0.0816
 5155,-0.00089316,0.00135561,0.00042393,-0.00059888,0.00005878,0.000070
 51,0.07696307,-0.26391800,0.01093921,-0.00057815,0.00114732,-0.0000693
 5,0.00060446,0.00121795,0.00015089,0.00362179,-0.01301373,-0.00188549,
 0.00579178,-0.01725768,0.00437483,0.00023155,0.00027327,-0.00024428,0.
 00013340,0.00005626,-0.00025822,-0.08198172,0.28783654,-0.00364839,0.0
 0623961,-0.00050741,-0.00070394,0.00008514,-0.00024799,-0.00090756,0.0
 1238980,-0.03755507,-0.00152216,0.00014108,-0.00025490,0.00066461,0.00
 000667,0.00048683,0.00810432,-0.02985394,-0.00557096,-0.00659135,0.025
 94309,-0.00520871,0.00054065,0.00015766,-0.00003967,-0.00025911,0.0001
 7205,-0.00000655,-0.00010356,-0.01273107,0.05227835,0.00157602,-0.0001
 9713,0.00013783,-0.00012391,0.00020138,0.00047242,0.01344059,-0.006262
 47,0.01283187,-0.00023643,0.00015907,0.00058776,0.00013919,-0.00040348
 ,-0.00008333,-0.00103306,-0.00189503,0.00270503,-0.16957844,0.06625768
 ,-0.12619845,-0.00002882,0.00005538,-0.00009283,-0.00018103,0.00003668
 ,-0.00003645,-0.00110371,-0.00284241,0.00265876,0.65358737,0.00089333,
 -0.00005448,-0.00003965,0.00016888,0.00006397,0.00032835,0.00218588,-0
 .00424905,0.02318424,-0.00026337,-0.00001543,-0.00029948,-0.00017514,0
 .00027246,-0.00014509,-0.00000197,-0.00283094,-0.00353777,0.07133607,-
 0.16393531,0.19360661,-0.00000241,0.00008539,0.00007134,-0.00033566,-0
 .00011761,-0.00000681,-0.00069000,-0.00043019,0.00020225,0.00936670,0.
 31480965,-0.00098222,-0.00131257,0.00004040,-0.00040475,0.00026075,-0.
 00026369,-0.00411643,0.01676065,-0.02217569,0.00037758,0.00049328,-0.0
 0009826,0.00037576,0.00007468,0.00018950,0.00007778,0.00151172,0.00231
 259,-0.13193434,0.19042993,-0.37571380,-0.00004887,-0.00002940,-0.0001
 5769,0.00036768,0.00005091,0.00007428,0.00163847,0.00049474,-0.0006446
 1,0.08215809,-0.32078648,0.61434308,-0.00147767,-0.00086181,0.00031859
 ,-0.00279285,-0.03336161,-0.00294154,-0.00079796,0.01076876,0.00166056
 ,-0.00007862,-0.00010723,-0.00053284,0.00012309,0.00034994,-0.00043859
 ,-0.09444624,-0.02271173,0.00012448,0.00215255,0.00044801,-0.00021553,
 -0.00526742,-0.00237220,-0.00130145,0.00218898,0.00113188,0.00089205,0
 .00005842,0.00102099,0.00287423,-0.00047820,-0.00027889,0.00023519,0.6
 9530859,0.00076074,0.00048147,-0.00010508,-0.01000976,-0.00774970,0.00
 142492,0.00010390,-0.01343961,-0.01492678,0.00016904,-0.00030077,0.000
 36632,0.00087029,0.00016910,0.00053359,-0.01981913,-0.19797426,-0.0050
 5009,0.00100634,0.00062120,0.00034296,0.00078661,0.00048013,-0.0009771
 9,0.00217074,-0.00062341,-0.00082770,-0.00045065,0.00087646,0.00041440
 ,-0.00049719,-0.00040394,0.00090991,-0.10520410,0.63771380,-0.00003335
 ,-0.00002194,-0.00103080,-0.00037060,0.00752550,-0.00038524,-0.0015596
 8,-0.03054025,-0.00236074,-0.00015855,-0.00023364,0.00023332,-0.000187
 47,0.00015042,0.00017175,0.00059905,-0.01234746,-0.07454262,0.00006013
 ,-0.00105023,0.00114052,0.00225151,0.00052731,0.00006214,-0.00023966,-
 0.00062446,0.00055891,-0.00092277,-0.00295892,-0.00494944,-0.00000922,
 -0.00056175,-0.00012620,-0.17971340,0.12024660,0.22853356,0.00174572,-
 0.00218442,0.00137539,-0.00043477,0.00029814,0.00021760,-0.01602459,0.
 00019116,-0.00378298,0.00027962,0.00009726,-0.00024040,-0.00058408,-0.
 00003728,0.00020568,0.00003468,-0.00001803,0.00020607,-0.31263681,-0.0
 0499391,-0.04510645,0.00005779,-0.00001711,0.00007979,-0.00004936,-0.0
 0003370,0.00029446,0.00050451,-0.00069532,0.00016127,-0.01036606,-0.00
 093286,-0.00177484,-0.00040890,-0.00044882,0.00009498,0.33499651,0.000
 50653,-0.00025557,0.00267971,-0.00078357,0.00023931,0.00035990,-0.0162
 4898,0.00199593,-0.00325413,-0.00008269,0.00012339,0.00000309,-0.00000
 045,-0.00013677,-0.00014919,-0.00046518,0.00035190,0.00082355,-0.00870
 556,-0.04620329,0.00562249,-0.00002771,-0.00004427,0.00005247,0.000030
 96,-0.00003964,0.00033973,0.00077439,0.00062947,-0.00087250,0.01611089
 ,0.00516241,0.00539031,0.00020250,0.00004989,0.00009146,0.00738269,0.0
 3628305,0.00080585,0.00323125,-0.00158255,0.00018092,-0.00002698,0.000
 31245,0.02227277,0.00055003,0.00587578,-0.00024888,-0.00015064,0.00014
 274,0.00079793,0.00005357,-0.00029310,-0.00088077,-0.00073686,0.000562
 43,-0.04119658,0.00610030,-0.05904022,-0.00005449,-0.00002044,-0.00002
 585,-0.00011109,-0.00005198,-0.00024449,-0.00058922,0.00021694,0.00057
 177,-0.02922356,0.00218504,-0.00212177,-0.00009781,-0.00001680,-0.0001
 3685,0.04948807,-0.01411346,0.05827053,-0.00201297,-0.00240359,-0.0010
 2416,-0.01404771,0.01402856,-0.01492873,0.00271289,-0.00422597,0.00414
 351,0.00013149,0.00014864,-0.00001333,-0.00010648,0.00008578,-0.001301
 53,-0.14749324,0.07572991,-0.09404673,0.00048196,0.00043381,0.00038090
 ,0.00200186,0.00016807,0.00067775,-0.00250991,-0.00076201,-0.00098228,
 0.00099159,-0.00086744,-0.00083546,-0.00017847,-0.00014829,0.00009311,
 0.00376423,0.00060631,0.00301286,-0.00003520,0.00007517,-0.00004366,0.
 15482985,-0.00174645,-0.00031566,-0.00185827,-0.00703494,0.00370116,-0
 .00626492,-0.00554472,0.00295858,-0.00698844,-0.00026882,0.00002140,-0
 .00035152,-0.00055243,-0.00019422,-0.00062438,0.07946702,-0.10708236,0
 .08189051,-0.00048020,-0.00016126,-0.00008931,0.00013769,0.00131144,0.
 00009634,-0.00062989,-0.00017222,-0.00033169,-0.00001246,0.00141348,-0
 .00025927,0.00008430,0.00016148,-0.00013535,0.02301898,-0.02295844,0.0
 1782555,0.00007000,-0.00003112,0.00008121,-0.08274288,0.12314078,-0.00
 087849,-0.00259069,-0.00248837,0.00301493,-0.00489239,0.00302499,-0.01
 528687,0.01294136,-0.01705338,0.00003531,0.00016878,0.00013721,-0.0013
 3101,-0.00000634,-0.00017241,-0.09379783,0.07997884,-0.13821956,-0.001
 98734,-0.00185275,-0.00135703,-0.00091959,-0.00059767,0.00081966,0.001
 12406,-0.00004179,-0.00006003,0.00069516,0.00056307,0.00227025,0.00063
 322,0.00057134,-0.00050574,0.00281035,-0.00336844,0.00460589,0.0003914
 9,0.00009017,-0.00020012,0.10559991,-0.08134677,0.14946545,0.00016583,
 0.00035650,-0.00077538,0.00084112,0.00112308,0.00031636,0.00017538,-0.
 00338682,-0.00271689,0.00023566,-0.00034535,0.00019359,0.00020861,-0.0
 0015386,0.00015713,0.00948673,0.00355577,0.00037655,-0.00074174,-0.000
 17044,-0.00009496,-0.00011174,-0.00009384,-0.00007387,-0.00022364,-0.0
 0125591,-0.00003055,0.00003353,-0.00036104,-0.00044737,0.00021132,-0.0
 0002062,-0.00003615,-0.30338508,0.18822246,0.11104829,0.00024734,-0.00
 008616,-0.00002103,0.00109441,-0.00309227,0.00001656,0.68427661,0.0005
 2567,-0.00026373,0.00005377,0.00151472,0.00046403,0.00004807,0.0004412
 9,-0.00241836,0.00283456,-0.00035880,0.00001157,-0.00034466,-0.0003085
 9,0.00010713,-0.00016800,0.02043786,-0.02735302,-0.01294836,-0.0007080
 3,-0.00039443,0.00092466,0.00031325,0.00000989,-0.00019246,-0.00008343
 ,-0.00078468,-0.00028124,-0.00015194,-0.00036725,-0.00142850,0.0001927
 7,0.00073522,-0.00046144,0.19517970,-0.30788354,-0.10710501,0.00025515
 ,-0.00005485,-0.00013661,-0.00074220,-0.00266821,-0.00030616,-0.066303
 16,0.72242474,-0.00017431,0.00032499,-0.00006672,0.00013041,-0.0004663
 2,-0.00002257,0.00003751,0.00023217,-0.00067977,-0.00003240,-0.0001665
 7,0.00005925,0.00010864,-0.00006251,0.00001204,0.00224621,-0.00487855,
 0.00567515,0.00005148,-0.00012192,-0.00021493,0.00025916,-0.00001163,-
 0.00003024,0.00001656,0.00023569,-0.00027648,0.00006660,0.00002647,0.0
 0012871,-0.00002117,-0.00016360,0.00010738,0.11245553,-0.10633831,-0.1
 0386174,-0.00002123,-0.00000813,-0.00000471,-0.00046101,0.00041161,-0.
 00021912,-0.18669962,0.13592882,0.19306136,0.00003054,0.00030402,0.000
 21710,0.00014732,-0.00031033,-0.00009786,-0.00087305,-0.00045671,-0.00
 244792,0.00039936,-0.00030977,-0.00012998,0.00006648,0.00002030,-0.000
 00304,0.00016189,0.00032799,-0.00008125,0.01006153,0.00738498,-0.01022
 102,0.00004579,0.00001003,0.00013502,0.00005502,0.00002739,-0.00001481
 ,0.00008248,0.00007871,0.00011824,-0.16590776,-0.08789340,0.10904755,0
 .00002955,0.00009199,0.00003659,0.00129587,0.00082488,0.00071404,0.000
 04042,-0.00000663,-0.00006692,-0.00000015,-0.00003920,0.00001685,0.167
 43129,0.00001757,0.00029098,-0.00041418,-0.00003558,0.00045072,0.00041
 840,0.00123085,0.00928687,0.00670526,-0.00012324,0.00003422,0.00002615
 ,-0.00005104,-0.00005528,-0.00006893,-0.00073245,-0.00184455,0.0008095
 6,-0.01029411,-0.00429428,0.00994593,-0.00000515,-0.00006717,-0.000047
 34,-0.00019293,-0.00009534,-0.00000238,0.00079248,0.00068414,-0.001266
 35,-0.08634263,-0.10695171,0.09481140,-0.00006041,-0.00035892,-0.00017
 151,0.00092165,-0.00513346,-0.00405912,-0.00014475,0.00004735,0.000403
 04,0.00003187,0.00008042,-0.00002234,0.09329096,0.10506391,-0.00043829
 ,0.00018936,0.00013559,0.00009219,-0.00002760,0.00015339,-0.00361902,0
 .00661180,0.00255340,0.00010011,-0.00022440,0.00008027,0.00008156,0.00
 004357,-0.00004596,-0.00036244,-0.00031667,0.00044384,0.01778150,0.013
 52614,-0.01396602,-0.00003848,-0.00003368,0.00002981,-0.00000695,-0.00
 004445,-0.00003558,0.00086713,0.00108433,-0.00157307,0.10423236,0.0929
 5507,-0.15446229,0.00005218,-0.00003897,-0.00006710,0.00049264,-0.0042
 2391,-0.00155934,-0.00001771,-0.00003763,0.00003618,0.00000358,-0.0000
 9524,-0.00000557,-0.11429893,-0.10617222,0.16257649,0.00010474,0.00003
 471,0.00049990,0.00042282,-0.00020507,0.00008836,-0.00052783,-0.000334
 88,0.00201354,-0.00007277,-0.00061791,0.00073505,0.00006388,0.00016463
 ,-0.00006416,-0.00008419,-0.00003814,0.00007636,-0.00980892,0.00060389
 ,-0.00341288,0.00003569,0.00001793,0.00008542,0.00000004,0.00000410,-0
 .00008681,0.00003869,0.00016568,-0.00025306,-0.31979153,0.00627506,-0.
 05503190,-0.00006853,0.00003626,0.00002619,0.00094392,0.00043177,-0.00
 192036,0.00000086,-0.00003800,0.00001503,0.00007871,-0.00005171,0.0000
 2083,-0.01308388,0.00165727,-0.00491856,0.34172205,-0.00032381,-0.0005
 5509,0.00002062,0.00002892,-0.00025071,-0.00017651,0.00128140,-0.00492
 099,-0.00422632,-0.00017032,0.00026212,0.00018763,-0.00027692,-0.00015
 207,0.00014550,0.00031531,0.00100084,-0.00062729,0.01536418,0.00507437
 ,0.00389331,-0.00004281,0.00001623,-0.00003161,0.00007750,0.00005666,-
 0.00008405,-0.00029424,-0.00049525,0.00082117,0.00573242,-0.04252951,0
 .01170238,0.00007903,0.00020432,0.00020856,-0.00018979,0.00707930,0.00
 729262,0.00005425,-0.00005466,-0.00019233,0.00001093,-0.00012971,0.000
 05347,-0.01334252,0.00283074,-0.00316660,-0.00814525,0.03262298,0.0001
 5585,0.00063947,-0.00000269,-0.00011963,-0.00057046,-0.00019751,-0.000
 26952,-0.00429578,-0.00144082,0.00110037,-0.00002705,-0.00087002,0.000
 02671,-0.00019643,0.00009436,0.00005161,0.00061391,-0.00029729,-0.0274
 1963,0.00127496,-0.00061725,0.00003760,-0.00001168,0.00021586,0.000067
 20,0.00006393,0.00001978,-0.00003997,-0.00049094,0.00066877,-0.0507921
 3,0.01216012,-0.06068713,-0.00003306,0.00010981,0.00018251,-0.00214419
 ,0.00740484,-0.00021870,0.00009045,-0.00002030,-0.00004279,0.00008289,
 -0.00007450,0.00005318,0.01707036,-0.00082882,0.00579902,0.06214630,-0
 .01579247,0.05736015,0.00010894,0.00013020,0.00011266,0.00147480,-0.00
 036335,0.00078837,0.00022051,-0.00018603,0.00029423,-0.00002719,-0.000
 00875,0.00002968,0.00000434,-0.00001240,-0.00002381,-0.00266338,-0.001
 10120,0.00078292,-0.00032146,-0.00014951,0.00023769,-0.00031849,-0.000
 10180,-0.00017944,0.00014963,0.00019933,0.00001227,0.00003975,-0.00001
 651,-0.00015272,0.00005159,0.00048201,-0.00006194,-0.28386376,-0.07654
 546,0.05629093,0.00035338,0.00005054,0.00019483,0.00040398,-0.00091827
 ,0.00000075,-0.01996709,-0.00723802,0.00646156,-0.00000242,0.00005552,
 0.00000271,0.00001545,-0.00012251,-0.00002974,0.30385712,0.00009584,0.
 00019786,0.00033647,0.00193470,-0.00520636,0.00007448,-0.00007262,0.00
 118858,0.00018206,-0.00000331,0.00000929,-0.00014471,0.00007870,0.0000
 1407,-0.00019634,-0.03022519,-0.00970073,0.00509651,-0.00025868,-0.000
 13785,-0.00023557,-0.00151252,-0.00067610,-0.00033275,0.00007436,0.000
 24952,0.00015303,0.00007815,-0.00000838,0.00007195,0.00025063,0.000237
 84,-0.00016095,-0.08091088,-0.08182194,0.01650215,0.00037968,-0.000016
 58,-0.00039369,0.00072656,0.00095469,0.00049253,0.02316905,0.00866131,
 -0.00649122,-0.00000451,0.00004496,-0.00000772,0.00004669,-0.00008033,
 0.00004755,0.08307020,0.08712293,0.00021757,0.00023642,0.00029319,-0.0
 0036089,-0.00140630,0.00116717,0.00005688,0.00117552,0.00099449,-0.000
 00959,-0.00008461,-0.00002816,0.00002975,-0.00000537,0.00012901,-0.003
 00185,-0.00180873,0.00212570,-0.00000744,-0.00033632,-0.00010630,-0.00
 049412,-0.00020226,-0.00005760,0.00003407,-0.00004724,0.00010970,0.000
 08385,0.00011471,0.00004393,0.00003656,0.00018702,-0.00007432,0.055579
 57,0.01535988,-0.05380281,0.00010809,-0.00020690,-0.00032586,0.0000990
 5,-0.00047545,0.00025551,0.01212753,0.00227178,0.00330488,0.00001202,-
 0.00005688,-0.00007379,0.00000956,0.00000696,0.00003220,-0.06620367,-0
 .01316876,0.04301558,0.00010984,-0.00007209,0.00015264,0.00015555,-0.0
 0066511,-0.00036651,-0.00010021,-0.00029903,-0.00009728,-0.00003318,0.
 00009010,0.00005300,0.00002789,-0.00003284,-0.00003590,-0.00074315,-0.
 00190823,-0.00247319,0.00002352,-0.00000936,0.00013262,0.00039186,-0.0
 0011559,-0.00007384,0.00084712,-0.00077224,-0.00041926,-0.00000018,0.0
 0001142,-0.00007047,0.00000758,0.00010661,-0.00001332,-0.01818525,-0.0
 0581629,0.00636968,0.00010235,-0.00001990,-0.00007265,-0.00008802,0.00
 046311,0.00011385,-0.29677701,-0.06358772,0.06860630,0.00000833,-0.000
 00306,-0.00001234,0.00001511,-0.00002607,0.00001228,-0.00013656,0.0024
 7795,0.00412990,0.31874923,-0.00006934,0.00015013,0.00003332,0.0003589
 6,-0.00136258,-0.00057675,-0.00008269,0.00035139,0.00010814,0.00000998
 ,0.00002904,0.00001406,-0.00003042,0.00002566,0.00013192,0.00036118,0.
 00063549,0.00144507,0.00009810,0.00012575,-0.00010266,-0.00004071,0.00
 030566,0.00022656,-0.00096082,-0.00218858,-0.00047526,-0.00000966,0.00
 006518,0.00009444,-0.00002704,-0.00009422,0.00005547,0.02031051,0.0102
 1941,-0.00549921,-0.00007264,0.00000331,0.00001267,-0.00010835,-0.0000
 8102,-0.00005310,-0.06684191,-0.07390470,0.01347653,0.00000107,-0.0000
 2418,-0.00000586,-0.00000237,0.00003473,-0.00000138,0.00226369,-0.0018
 7195,-0.00313959,0.07012647,0.07009233,0.00010194,-0.00012347,-0.00008
 681,0.00038956,0.00002589,-0.00058758,0.00013990,-0.00101532,0.0001409
 2,-0.00008059,-0.00003365,-0.00027556,-0.00004055,0.00009395,-0.000017
 23,-0.00229229,0.00160186,-0.00644805,0.00008424,-0.00010890,0.0002774
 4,-0.00014253,0.00018106,0.00006853,-0.00029142,-0.00031356,0.00058820
 ,-0.00009181,-0.00016420,-0.00031794,-0.00005788,0.00013310,0.00002424
 ,0.01100815,0.00308029,0.00338491,-0.00000958,-0.00004147,-0.00001849,
 -0.00028702,0.00114143,0.00025123,0.06884670,0.01258291,-0.05570673,-0
 .00001803,0.00001491,0.00001553,-0.00001726,-0.00002160,-0.00004281,0.
 00383096,-0.00330055,0.00996567,-0.07824289,-0.01265818,0.04532622,-0.
 00002646,-0.00011639,0.00008587,-0.00056655,-0.00032026,0.00021341,-0.
 00015204,0.00119339,-0.00017348,0.00001457,0.00001477,0.00006738,0.000
 05725,-0.00002900,-0.00004377,-0.00141330,0.00068159,0.00451374,0.0001
 3998,0.00011864,-0.00018267,0.00024860,-0.00013999,-0.00011787,0.00061
 886,0.00008107,-0.00023562,0.00005364,0.00021178,0.00037309,-0.0000062
 4,-0.00007195,0.00003355,0.00762509,0.02396676,0.00340448,-0.00002191,
 0.00002990,0.00000570,0.00001845,-0.00017316,-0.00018257,-0.07584880,-
 0.07928759,-0.00306791,0.00001142,-0.00001280,0.00000675,-0.00000428,-
 0.00000971,0.00000626,0.00062087,0.00060518,-0.00244684,-0.00437480,-0
 .02528400,-0.00282961,0.07300565,0.00010215,0.00000524,0.00003023,0.00
 033548,0.00040364,0.00002803,0.00017961,-0.00100404,0.00008780,-0.0000
 2953,0.00000655,-0.00001020,-0.00002293,-0.00001164,-0.00002141,0.0013
 6870,0.00115243,-0.00297832,-0.00008436,-0.00008786,0.00014936,-0.0000
 3135,-0.00004961,-0.00000573,-0.00000521,0.00010230,0.00003787,-0.0000
 5092,-0.00012398,-0.00032768,0.00001946,0.00008397,-0.00005993,-0.0066
 4144,-0.01730125,-0.00196316,0.00002815,-0.00000241,-0.00001705,0.0000
 8842,0.00000882,0.00003929,-0.07435827,-0.31627181,-0.03195865,0.00000
 075,0.00001058,-0.00001533,-0.00000465,-0.00001397,-0.00000479,0.00051
 231,0.00083918,0.00158612,0.00005187,-0.00251082,-0.00107453,0.0785417
 8,0.33476470,-0.00013209,-0.00002443,0.00009692,0.00004005,0.00007166,
 0.00023248,-0.00007315,0.00196581,0.00004390,0.00005673,0.00000925,0.0
 0000998,-0.00000718,-0.00002362,-0.00002077,0.00500462,-0.00239958,0.0
 1114922,-0.00006789,0.00016526,-0.00031368,-0.00007680,0.00008930,0.00
 004795,-0.00019440,-0.00008889,-0.00006824,0.00010111,0.00034284,0.000
 42771,0.00006113,-0.00004386,-0.00006029,-0.00273666,-0.01113933,0.002
 39002,-0.00003588,0.00001198,0.00003636,-0.00015594,-0.00266338,-0.000
 54782,-0.00227336,-0.03110239,-0.04131338,0.00001200,-0.00002458,-0.00
 003478,-0.00001155,-0.00001345,-0.00000883,-0.00238824,0.00147553,-0.0
 0696819,0.00230737,0.00691380,0.00345831,0.00057011,0.03647806,0.03144
 313\\0.00007030,0.00058566,-0.00002461,-0.00004686,-0.00046415,-0.0000
 1250,-0.00001117,-0.00001072,0.00006623,0.00000559,-0.00002709,0.00000
 114,-0.00001248,-0.00003558,-0.00001553,0.00001872,0.00003810,0.000039
 44,-0.00000287,-0.00003914,-0.00005926,0.00000499,0.00002065,0.0000020
 7,-0.00001508,0.00003734,0.00001213,0.00001137,0.00001674,-0.00001208,
 0.00000474,0.00000916,0.00002383,-0.00004469,-0.00004807,-0.00000292,0
 .00000438,-0.00000875,-0.00000642,0.00000581,-0.00000747,0.00000953,-0
 .00001299,-0.00001653,0.00000661,-0.00000193,0.00000793,0.00000113,-0.
 00000052,-0.00000199,-0.00000615,0.00001417,-0.00003362,-0.00000500,-0
 .00002520,-0.00000908,-0.00000028,0.00003373,-0.00001340,-0.00001734\\
 \@


 THE MORE POWERFUL THE METHOD, THE MORE CATASTROPHIC THE ERRORS.
     -- M.D. KAMEN
 Job cpu time:       0 days  2 hours 42 minutes 48.0 seconds.
 Elapsed time:       0 days  0 hours 17 minutes 46.1 seconds.
 File lengths (MBytes):  RWF=    162 Int=      0 D2E=      0 Chk=     32 Scr=      1
 Normal termination of Gaussian 16 at Fri Jun 10 04:01:50 2022.
