 Entering Gaussian System, Link 0=g16
 Input=int_initalOpt_zmat_sp.gjf
 Output=int_initalOpt_zmat_sp.out
 Initial command:
 /software/gaussian/g16-a03/l1.exe "/local_scratch/11171394/Gau-9387.inp" -scrdir="/local_scratch/11171394/"
 Entering Link 1 = /software/gaussian/g16-a03/l1.exe PID=      9388.
  
 Copyright (c) 1988,1990,1992,1993,1995,1998,2003,2009,2016,
            Gaussian, Inc.  All Rights Reserved.
  
 This is part of the Gaussian(R) 16 program.  It is based on
 the Gaussian(R) 09 system (copyright 2009, Gaussian, Inc.),
 the Gaussian(R) 03 system (copyright 2003, Gaussian, Inc.),
 the Gaussian(R) 98 system (copyright 1998, Gaussian, Inc.),
 the Gaussian(R) 94 system (copyright 1995, Gaussian, Inc.),
 the Gaussian 92(TM) system (copyright 1992, Gaussian, Inc.),
 the Gaussian 90(TM) system (copyright 1990, Gaussian, Inc.),
 the Gaussian 88(TM) system (copyright 1988, Gaussian, Inc.),
 the Gaussian 86(TM) system (copyright 1986, Carnegie Mellon
 University), and the Gaussian 82(TM) system (copyright 1983,
 Carnegie Mellon University). Gaussian is a federally registered
 trademark of Gaussian, Inc.
  
 This software contains proprietary and confidential information,
 including trade secrets, belonging to Gaussian, Inc.
  
 This software is provided under written license and may be
 used, copied, transmitted, or stored only in accord with that
 written license.
  
 The following legend is applicable only to US Government
 contracts under FAR:
  
                    RESTRICTED RIGHTS LEGEND
  
 Use, reproduction and disclosure by the US Government is
 subject to restrictions as set forth in subparagraphs (a)
 and (c) of the Commercial Computer Software - Restricted
 Rights clause in FAR 52.227-19.
  
 Gaussian, Inc.
 340 Quinnipiac St., Bldg. 40, Wallingford CT 06492
  
  
 ---------------------------------------------------------------
 Warning -- This program may not be used in any manner that
 competes with the business of Gaussian, Inc. or will provide
 assistance to any competitor of Gaussian, Inc.  The licensee
 of this program is prohibited from giving any competitor of
 Gaussian, Inc. access to this program.  By using this program,
 the user acknowledges that Gaussian, Inc. is engaged in the
 business of creating and licensing software in the field of
 computational chemistry and represents and warrants to the
 licensee that it is not a competitor of Gaussian, Inc. and that
 it will not use this program in any manner prohibited above.
 ---------------------------------------------------------------
  

 Cite this work as:
 Gaussian 16, Revision A.03,
 M. J. Frisch, G. W. Trucks, H. B. Schlegel, G. E. Scuseria, 
 M. A. Robb, J. R. Cheeseman, G. Scalmani, V. Barone, 
 G. A. Petersson, H. Nakatsuji, X. Li, M. Caricato, A. V. Marenich, 
 J. Bloino, B. G. Janesko, R. Gomperts, B. Mennucci, H. P. Hratchian, 
 J. V. Ortiz, A. F. Izmaylov, J. L. Sonnenberg, D. Williams-Young, 
 F. Ding, F. Lipparini, F. Egidi, J. Goings, B. Peng, A. Petrone, 
 T. Henderson, D. Ranasinghe, V. G. Zakrzewski, J. Gao, N. Rega, 
 G. Zheng, W. Liang, M. Hada, M. Ehara, K. Toyota, R. Fukuda, 
 J. Hasegawa, M. Ishida, T. Nakajima, Y. Honda, O. Kitao, H. Nakai, 
 T. Vreven, K. Throssell, J. A. Montgomery, Jr., J. E. Peralta, 
 F. Ogliaro, M. J. Bearpark, J. J. Heyd, E. N. Brothers, K. N. Kudin, 
 V. N. Staroverov, T. A. Keith, R. Kobayashi, J. Normand, 
 K. Raghavachari, A. P. Rendell, J. C. Burant, S. S. Iyengar, 
 J. Tomasi, M. Cossi, J. M. Millam, M. Klene, C. Adamo, R. Cammi, 
 J. W. Ochterski, R. L. Martin, K. Morokuma, O. Farkas, 
 J. B. Foresman, and D. J. Fox, Gaussian, Inc., Wallingford CT, 2016.
 
 ******************************************
 Gaussian 16:  ES64L-G16RevA.03 25-Dec-2016
                10-Jun-2022 
 ******************************************
 %nprocshared=12
 Will use up to   12 processors via shared memory.
 %chk=checkpoint.chk
 %mem=12GB
 --------------------------
 # sp B3LYP/Def2TZVP NoSymm
 --------------------------
 1/38=1,172=1/1;
 2/12=2,15=1,17=6,18=5,40=1/2;
 3/5=44,7=101,11=2,25=1,30=1,74=-5/1,2,3;
 4//1;
 5/5=2,38=5/2;
 6/7=2,8=2,9=2,10=2,28=1/1;
 99/5=1,9=1/99;
 ----------------------------
 int_initalOpt_zmat_AlignedSp
 ----------------------------
 Symbolic Z-matrix:
 Charge =  0 Multiplicity = 1
 C
 C                    1    R2
 C                    1    R3       2    A3
 H                    1    R4       2    A4       3    D4       0
 C                    3    R5       1    A5       2    D5       0
 C                    2    R6       1    A6       3    D6       0
 H                    2    R7       1    A7       6    D7       0
 C                    2    R8       1    A8       6    D8       0
 H                    3    R9       1    A9       5    D9       0
 C                    5    R10      3    A10      1    D10      0
 H                    5    R11      3    A11      10   D11      0
 C                    5    R12      3    A12      10   D12      0
 H                    8    R13      2    A13      1    D13      0
 H                    8    R14      2    A14      13   D14      0
 N                    6    R15      2    A15      1    D15      0
 C                    6    R16      2    A16      15   D16      0
 H                    10   R17      5    A17      3    D17      0
 H                    10   R18      5    A18      17   D18      0
 H                    12   R19      5    A19      3    D19      0
 H                    12   R20      5    A20      19   D20      0
 O                    15   R21      6    A21      2    D21      0
 O                    16   R22      6    A22      2    D22      0
 O                    16   R23      6    A23      22   D23      0
 C                    23   R24      16   A24      6    D24      0
 H                    24   R25      23   A25      16   D25      0
 H                    24   R26      23   A26      25   D26      0
 H                    24   R27      23   A27      25   D27      0
       Variables:
  R2                    1.50759                  
  R3                    1.33126                  
  R4                    1.08223                  
  R5                    1.50645                  
  R6                    1.56817                  
  R7                    1.08684                  
  R8                    1.55199                  
  R9                    1.08285                  
  R10                   1.55009                  
  R11                   1.08991                  
  R12                   1.55016                  
  R13                   1.09213                  
  R14                   1.09043                  
  R15                   1.55801                  
  R16                   1.53313                  
  R17                   1.08889                  
  R18                   1.09095                  
  R19                   1.09208                  
  R20                   1.09061                  
  R21                   1.18747                  
  R22                   1.20441                  
  R23                   1.34069                  
  R24                   1.43796                  
  R25                   1.08622                  
  R26                   1.08914                  
  R27                   1.08935                  
  A3                  114.40389                  
  A4                  121.25768                  
  A5                  114.24951                  
  A6                  107.77765                  
  A7                  112.76397                  
  A8                  107.83115                  
  A9                  123.79817                  
  A10                 108.44974                  
  A11                 112.19318                  
  A12                 107.92568                  
  A13                 110.12665                  
  A14                 108.21237                  
  A15                 103.84148                  
  A16                 111.44666                  
  A17                 110.55584                  
  A18                 110.23728                  
  A19                 109.19906                  
  A20                 109.82998                  
  A21                 115.40503                  
  A22                 124.85831                  
  A23                 111.53793                  
  A24                 116.09611                  
  A25                 105.47545                  
  A26                 110.36355                  
  A27                 110.46442                  
  D4                 -179.74148                  
  D5                    0.5982                   
  D6                  -57.70771                  
  D7                 -121.19302                  
  D8                  115.35309                  
  D9                  179.83734                  
  D10                  57.60793                  
  D11                 121.46126                  
  D12                -116.43397                  
  D13                -177.56116                  
  D14                -116.32146                  
  D15                 -68.87451                  
  D16                -110.28022                  
  D17                -176.26016                  
  D18                -118.85773                  
  D19                 176.39978                  
  D20                 117.27909                  
  D21                 122.25173                  
  D22                -130.61208                  
  D23                -178.96169                  
  D24                 177.41787                  
  D25                -178.83601                  
  D26                 119.56635                  
  D27                -119.64131                  
 
                          Input orientation:                          
 ---------------------------------------------------------------------
 Center     Atomic      Atomic             Coordinates (Angstroms)
 Number     Number       Type             X           Y           Z
 ---------------------------------------------------------------------
      1          6           0        0.000000    0.000000    0.000000
      2          6           0        0.000000    0.000000    1.507589
      3          6           0        1.212320    0.000000   -0.550032
      4          1           0       -0.925127    0.004174   -0.561556
      5          6           0        2.343225   -0.014340    0.445082
      6          6           0        0.797773   -1.262328    1.986389
      7          1           0       -1.001997   -0.019227    1.928125
      8          6           0        0.790660    1.248065    1.982827
      9          1           0        1.389081    0.006840   -1.618332
     10          6           0        2.185753   -1.263943    1.348670
     11          1           0        3.318801   -0.030325   -0.040609
     12          6           0        2.202475    1.239710    1.345389
     13          1           0        0.851083    1.261906    3.073195
     14          1           0        0.232927    2.137462    1.687970
     15          7           0       -0.116525   -2.456953    1.581008
     16          6           0        0.832417   -1.356549    3.516230
     17          1           0        2.949596   -1.273361    2.124647
     18          1           0        2.303693   -2.173773    0.758358
     19          1           0        2.975479    1.216820    2.116479
     20          1           0        2.364856    2.140731    0.752746
     21          8           0        0.381589   -3.257710    0.859378
     22          8           0        1.826221   -1.536072    4.172528
     23          8           0       -0.393827   -1.236017    4.044672
     24          6           0       -0.482454   -1.367800    5.473836
     25          1           0       -1.537632   -1.263554    5.709628
     26          1           0       -0.112800   -2.342871    5.788174
     27          1           0        0.100341   -0.589449    5.964958
 ---------------------------------------------------------------------
                    Distance matrix (angstroms):
                    1          2          3          4          5
     1  C    0.000000
     2  C    1.507589   0.000000
     3  C    1.331260   2.388205   0.000000
     4  H    1.082230   2.266547   2.137481   0.000000
     5  C    2.385164   2.572903   1.506454   3.419910   0.000000
     6  C    2.485087   1.568172   2.863346   3.326325   2.514264
     7  H    2.173025   1.086839   3.323377   2.490978   3.659228
     8  C    2.472734   1.551987   2.854967   3.311355   2.523645
     9  H    2.132742   3.420668   1.082846   2.544079   2.273437
    10  C    2.862513   2.529886   2.479959   3.864539   1.550089
    11  H    3.319188   3.662278   2.167417   4.275921   1.089909
    12  C    2.863189   2.532605   2.471823   3.865861   1.550163
    13  H    3.429472   2.183546   3.853657   4.236535   3.280589
    14  H    2.733541   2.157670   3.246014   3.309437   3.260120
    15  N    2.924001   2.460810   3.513371   3.361780   3.647883
    16  C    3.859666   2.562769   4.303376   4.644230   3.676414
    17  H    3.851712   3.271441   3.434164   4.884798   2.184892
    18  H    3.256900   3.254787   2.761932   4.112287   2.182397
    19  H    3.848845   3.271830   3.420477   4.884374   2.170039
    20  H    3.277484   3.277966   2.758315   4.137179   2.177030
    21  O    3.390695   3.343420   3.645439   3.790309   3.813018
    22  O    4.806724   3.577220   5.003895   5.688043   4.059164
    23  O    4.247612   2.849496   5.021827   4.799759   4.684121
    24  C    5.662731   4.223122   6.405476   6.205178   5.924920
    25  H    6.046547   4.649517   6.952851   6.427289   6.658605
    26  H    6.245377   4.881105   6.886062   6.818180   6.324772
    27  H    5.994851   4.497295   6.635438   6.633201   5.985842
                    6          7          8          9         10
     6  C    0.000000
     7  H    2.188120   0.000000
     8  C    2.510406   2.196052   0.000000
     9  H    3.867098   4.277300   3.855787   0.000000
    10  C    1.527474   3.470856   2.942554   3.324557   0.000000
    11  H    3.461522   4.748193   3.481389   2.492872   2.176168
    12  C    2.940113   3.491869   1.549070   3.311377   2.503711
    13  H    2.748772   2.527131   1.092129   4.886211   3.336951
    14  H    3.459289   2.496802   1.090428   4.099741   3.936777
    15  N    1.558012   2.616689   3.835571   4.309629   2.603409
    16  C    1.533132   2.770485   3.022762   5.341576   2.557032
    17  H    2.156288   4.150489   3.322455   4.252530   1.088891
    18  H    2.146296   4.115582   3.936695   3.352648   1.090948
    19  H    3.302348   4.169365   2.189126   4.234327   2.714293
    20  H    3.944419   4.169249   2.188160   3.335812   3.461071
    21  O    2.329144   3.680259   4.661704   4.220352   2.733043
    22  O    2.431429   3.916246   3.690339   6.008804   2.859631
    23  O    2.378472   2.515992   3.438732   6.065728   3.731412
    24  C    3.716503   3.828922   4.544306   7.462649   4.913971
    25  H    4.395068   4.016841   5.061445   7.992405   5.734243
    26  H    4.055895   4.592382   5.309589   7.914109   5.114355
    27  H    4.094898   4.223307   4.439636   7.715095   5.110186
                   11         12         13         14         15
    11  H    0.000000
    12  C    2.186359   0.000000
    13  H    4.177950   2.193642   0.000000
    14  H    4.148483   2.191447   1.751446   0.000000
    15  N    4.507730   4.370194   4.122233   4.608927   0.000000
    16  C    4.537850   3.651052   2.655737   3.988739   2.420013
    17  H    2.523843   2.735134   3.425066   4.382316   3.331295
    18  H    2.502631   3.465071   4.390038   4.872269   2.571848
    19  H    2.515208   1.092080   2.330321   2.924515   4.831545
    20  H    2.500582   1.090611   2.906600   2.328041   5.289799
    21  O    4.455693   4.876333   5.054536   5.460453   1.187467
    22  O    4.716524   3.979856   3.160397   4.712374   3.367233
    23  O    5.650382   4.489559   2.955196   4.162598   2.763552
    24  C    6.829897   5.572435   3.802204   5.208783   4.058851
    25  H    7.626993   6.269076   4.362876   5.556574   4.526505
    26  H    7.148319   6.159037   4.614608   6.083140   4.208714
    27  H    6.836515   5.394924   3.514744   5.074076   4.770075
                   16         17         18         19         20
    16  C    0.000000
    17  H    2.534930   0.000000
    18  H    3.230846   1.759169   0.000000
    19  H    3.629635   2.490329   3.713746   0.000000
    20  H    4.713405   3.725595   4.314942   1.756769   0.000000
    21  O    3.297957   3.483275   2.208984   5.322592   5.752207
    22  O    1.204410   2.350491   3.505881   3.623058   5.050141
    23  O    1.340691   3.855693   4.353833   4.592010   5.463473
    24  C    2.358227   4.796348   5.536059   5.468950   6.534957
    25  H    3.230599   5.743465   6.332404   6.279422   7.168629
    26  H    2.651036   4.893215   5.582749   5.974129   7.183106
    27  H    2.668454   4.830526   5.871416   5.132233   6.304686
                   21         22         23         24         25
    21  O    0.000000
    22  O    4.003494   0.000000
    23  O    3.851572   2.243879   0.000000
    24  C    5.060786   2.655504   1.437961   0.000000
    25  H    5.584352   3.708429   2.020180   1.086215   0.000000
    26  H    5.037299   2.649724   2.084204   1.089136   1.789202
    27  H    5.767639   2.662247   2.085606   1.089349   1.789572
                   26         27
    26  H    0.000000
    27  H    1.775154   0.000000
 Symmetry turned off by external request.
 Stoichiometry    C10H13NO3
 Framework group  C1[X(C10H13NO3)]
 Deg. of freedom    75
 Full point group                 C1      NOp   1
 Rotational constants (GHZ):           1.1242831           0.6249357           0.5342066
 Standard basis: def2TZVP (5D, 7F)
   512 basis functions,   818 primitive gaussians,   582 cartesian basis functions
    52 alpha electrons       52 beta electrons
       nuclear repulsion energy       965.8796249703 Hartrees.
 NAtoms=   27 NActive=   27 NUniq=   27 SFac= 1.00D+00 NAtFMM=   60 NAOKFM=F Big=F
 Integral buffers will be    131072 words long.
 Raffenetti 2 integral format.
 Two-electron integral symmetry is turned off.
 One-electron integrals computed using PRISM.
   1 Symmetry operations used in ECPInt.
 ECPInt:  NShTT=   21321 NPrTT=   64608 LenC2=   20379 LenP2D=   46970.
 LDataN:  DoStor=T MaxTD1= 6 Len=  172
 NBasis=   512 RedAO= T EigKep=  1.04D-05  NBF=   512
 NBsUse=   512 1.00D-06 EigRej= -1.00D+00 NBFU=   512
 ExpMin= 9.52D-02 ExpMax= 2.70D+04 ExpMxC= 9.22D+02 IAcc=3 IRadAn=         5 AccDes= 0.00D+00
 Harris functional with IExCor=  402 and IRadAn=       5 diagonalized for initial guess.
 HarFok:  IExCor=  402 AccDes= 0.00D+00 IRadAn=         5 IDoV= 1 UseB2=F ITyADJ=14
 ICtDFT=  3500011 ScaDFX=  1.000000  1.000000  1.000000  1.000000
 FoFCou: FMM=F IPFlag=           0 FMFlag=      100000 FMFlg1=           0
         NFxFlg=           0 DoJE=T BraDBF=F KetDBF=T FulRan=T
         wScrn=  0.000000 ICntrl=       500 IOpCl=  0 I1Cent=   200000004 NGrid=           0
         NMat0=    1 NMatS0=      1 NMatT0=    0 NMatD0=    1 NMtDS0=    0 NMtDT0=    0
 Symmetry not used in FoFCou.
 Requested convergence on RMS density matrix=1.00D-08 within 128 cycles.
 Requested convergence on MAX density matrix=1.00D-06.
 Requested convergence on             energy=1.00D-06.
 No special actions if energy rises.
 Integral accuracy reduced to 1.0D-05 until final iterations.
 Initial convergence to 1.0D-05 achieved.  Increase integral accuracy.
 SCF Done:  E(RB3LYP) =  -669.471112140     A.U. after   17 cycles
            NFock= 17  Conv=0.57D-08     -V/T= 2.0048

 **********************************************************************

            Population analysis using the SCF density.

 **********************************************************************

 Alpha  occ. eigenvalues --  -19.20250 -19.18603 -19.12770 -14.44206 -10.31355
 Alpha  occ. eigenvalues --  -10.23551 -10.22849 -10.19840 -10.18576 -10.18075
 Alpha  occ. eigenvalues --  -10.17487 -10.17356 -10.17257 -10.17163  -1.18551
 Alpha  occ. eigenvalues --   -1.12311  -1.03483  -0.88918  -0.80978  -0.76395
 Alpha  occ. eigenvalues --   -0.75494  -0.73822  -0.69138  -0.62364  -0.61463
 Alpha  occ. eigenvalues --   -0.60308  -0.56869  -0.54110  -0.53647  -0.51503
 Alpha  occ. eigenvalues --   -0.49246  -0.48983  -0.48375  -0.46921  -0.46014
 Alpha  occ. eigenvalues --   -0.45091  -0.43442  -0.42334  -0.41080  -0.40218
 Alpha  occ. eigenvalues --   -0.39751  -0.39169  -0.38243  -0.37246  -0.36912
 Alpha  occ. eigenvalues --   -0.33180  -0.32307  -0.31930  -0.31234  -0.29608
 Alpha  occ. eigenvalues --   -0.26076  -0.23487
 Alpha virt. eigenvalues --   -0.09681  -0.01617   0.00430   0.02535   0.04373
 Alpha virt. eigenvalues --    0.06167   0.06274   0.06621   0.07925   0.08640
 Alpha virt. eigenvalues --    0.09168   0.09909   0.10638   0.11138   0.11462
 Alpha virt. eigenvalues --    0.12312   0.13433   0.14657   0.15325   0.16103
 Alpha virt. eigenvalues --    0.17282   0.18153   0.18790   0.18917   0.19413
 Alpha virt. eigenvalues --    0.20143   0.20947   0.21842   0.22400   0.22968
 Alpha virt. eigenvalues --    0.23317   0.24425   0.25621   0.26047   0.26281
 Alpha virt. eigenvalues --    0.27992   0.29630   0.29908   0.30737   0.31355
 Alpha virt. eigenvalues --    0.32736   0.33308   0.33382   0.34721   0.35623
 Alpha virt. eigenvalues --    0.36033   0.36635   0.36993   0.38361   0.38504
 Alpha virt. eigenvalues --    0.38940   0.39709   0.40368   0.41068   0.41681
 Alpha virt. eigenvalues --    0.42343   0.42941   0.43154   0.43432   0.43981
 Alpha virt. eigenvalues --    0.44927   0.45433   0.45732   0.45941   0.46476
 Alpha virt. eigenvalues --    0.47458   0.47661   0.48470   0.49069   0.49559
 Alpha virt. eigenvalues --    0.50405   0.50697   0.51853   0.52077   0.53321
 Alpha virt. eigenvalues --    0.54275   0.55798   0.56964   0.57855   0.58939
 Alpha virt. eigenvalues --    0.59525   0.60025   0.61190   0.62105   0.62997
 Alpha virt. eigenvalues --    0.64349   0.65393   0.67097   0.68671   0.70553
 Alpha virt. eigenvalues --    0.72429   0.73456   0.74785   0.76326   0.77863
 Alpha virt. eigenvalues --    0.78721   0.79340   0.81058   0.82114   0.82245
 Alpha virt. eigenvalues --    0.83772   0.84243   0.84599   0.86841   0.87509
 Alpha virt. eigenvalues --    0.90335   0.92167   0.92694   0.94034   0.94624
 Alpha virt. eigenvalues --    0.95482   0.96407   0.98678   0.99225   1.00637
 Alpha virt. eigenvalues --    1.01339   1.02908   1.04204   1.06443   1.06894
 Alpha virt. eigenvalues --    1.07812   1.07999   1.09281   1.10833   1.11983
 Alpha virt. eigenvalues --    1.12660   1.14195   1.15619   1.16247   1.18462
 Alpha virt. eigenvalues --    1.19373   1.20890   1.21453   1.22250   1.24525
 Alpha virt. eigenvalues --    1.25496   1.26114   1.28352   1.28899   1.29267
 Alpha virt. eigenvalues --    1.31279   1.32297   1.33280   1.33849   1.35778
 Alpha virt. eigenvalues --    1.37552   1.39028   1.41369   1.41755   1.43345
 Alpha virt. eigenvalues --    1.45964   1.46623   1.47128   1.48673   1.50124
 Alpha virt. eigenvalues --    1.50646   1.51745   1.52102   1.52822   1.54244
 Alpha virt. eigenvalues --    1.55245   1.56365   1.57779   1.58001   1.59618
 Alpha virt. eigenvalues --    1.61263   1.62069   1.62830   1.64281   1.65534
 Alpha virt. eigenvalues --    1.66735   1.67977   1.69643   1.70913   1.71954
 Alpha virt. eigenvalues --    1.72854   1.74819   1.76311   1.78263   1.80351
 Alpha virt. eigenvalues --    1.81072   1.83234   1.85480   1.86572   1.87086
 Alpha virt. eigenvalues --    1.88107   1.89774   1.91135   1.92380   1.93143
 Alpha virt. eigenvalues --    1.94460   1.94981   1.95713   1.97294   1.98267
 Alpha virt. eigenvalues --    1.99021   2.01361   2.02654   2.04367   2.06108
 Alpha virt. eigenvalues --    2.08086   2.09101   2.09196   2.11361   2.11939
 Alpha virt. eigenvalues --    2.13186   2.14016   2.16043   2.16675   2.17260
 Alpha virt. eigenvalues --    2.20954   2.21993   2.23005   2.23573   2.25936
 Alpha virt. eigenvalues --    2.26460   2.27003   2.27738   2.29386   2.29764
 Alpha virt. eigenvalues --    2.31937   2.33527   2.34851   2.36558   2.38807
 Alpha virt. eigenvalues --    2.39674   2.40744   2.41816   2.42799   2.44607
 Alpha virt. eigenvalues --    2.45833   2.46931   2.47918   2.48979   2.50538
 Alpha virt. eigenvalues --    2.51899   2.52386   2.53178   2.54254   2.54699
 Alpha virt. eigenvalues --    2.56101   2.58619   2.59624   2.60317   2.60855
 Alpha virt. eigenvalues --    2.62171   2.64104   2.65407   2.66178   2.67224
 Alpha virt. eigenvalues --    2.68947   2.69523   2.70234   2.72152   2.73911
 Alpha virt. eigenvalues --    2.74148   2.76277   2.77977   2.78611   2.79974
 Alpha virt. eigenvalues --    2.80835   2.81716   2.82707   2.83336   2.86253
 Alpha virt. eigenvalues --    2.86645   2.88532   2.88869   2.90531   2.91980
 Alpha virt. eigenvalues --    2.93423   2.94691   2.95379   2.97985   2.99461
 Alpha virt. eigenvalues --    3.00696   3.01710   3.02916   3.03368   3.03844
 Alpha virt. eigenvalues --    3.05876   3.06687   3.08271   3.08320   3.10410
 Alpha virt. eigenvalues --    3.11359   3.12250   3.14364   3.14877   3.16088
 Alpha virt. eigenvalues --    3.17869   3.19200   3.19872   3.20462   3.21303
 Alpha virt. eigenvalues --    3.23491   3.25350   3.25984   3.27277   3.29994
 Alpha virt. eigenvalues --    3.30593   3.31290   3.31888   3.33216   3.34886
 Alpha virt. eigenvalues --    3.35069   3.35415   3.37096   3.38349   3.39133
 Alpha virt. eigenvalues --    3.39667   3.41086   3.42163   3.43011   3.44657
 Alpha virt. eigenvalues --    3.45775   3.47481   3.48058   3.49929   3.51104
 Alpha virt. eigenvalues --    3.51482   3.53296   3.54845   3.55394   3.56157
 Alpha virt. eigenvalues --    3.57631   3.58454   3.60375   3.61395   3.62616
 Alpha virt. eigenvalues --    3.63412   3.66005   3.66678   3.69130   3.69906
 Alpha virt. eigenvalues --    3.71059   3.74126   3.76651   3.79384   3.80793
 Alpha virt. eigenvalues --    3.81088   3.83723   3.86580   3.88777   3.90058
 Alpha virt. eigenvalues --    3.92020   3.94378   3.94986   3.97637   3.99948
 Alpha virt. eigenvalues --    4.00958   4.04376   4.05578   4.07088   4.07695
 Alpha virt. eigenvalues --    4.09346   4.10771   4.12438   4.13584   4.15033
 Alpha virt. eigenvalues --    4.16089   4.16579   4.17696   4.18676   4.19768
 Alpha virt. eigenvalues --    4.23582   4.26166   4.26318   4.29595   4.30310
 Alpha virt. eigenvalues --    4.31252   4.33447   4.35567   4.35861   4.37946
 Alpha virt. eigenvalues --    4.39492   4.41523   4.42779   4.44764   4.47756
 Alpha virt. eigenvalues --    4.48540   4.50722   4.51951   4.56582   4.57891
 Alpha virt. eigenvalues --    4.58872   4.61532   4.68236   4.73743   4.74274
 Alpha virt. eigenvalues --    4.80143   4.81434   4.82716   4.86267   4.88799
 Alpha virt. eigenvalues --    4.91162   4.91698   4.94455   4.96280   5.02937
 Alpha virt. eigenvalues --    5.03805   5.05820   5.08369   5.09985   5.12746
 Alpha virt. eigenvalues --    5.14031   5.15152   5.15824   5.17375   5.20229
 Alpha virt. eigenvalues --    5.20860   5.28671   5.31253   5.38368   5.43092
 Alpha virt. eigenvalues --    5.48664   5.55532   5.57801   5.63522   5.68314
 Alpha virt. eigenvalues --    5.74380   5.83949   5.97667   6.07535   6.17995
 Alpha virt. eigenvalues --    6.22702   6.27600   6.31192   6.35294   6.36978
 Alpha virt. eigenvalues --    6.41501   6.50336   6.53876   6.64612   6.67985
 Alpha virt. eigenvalues --    6.76935   6.85732   6.88936   6.90681   6.97412
 Alpha virt. eigenvalues --    7.02568   7.12982   7.13882   7.26744   7.35842
 Alpha virt. eigenvalues --    7.43370  22.27360  22.32414  22.47561  22.54541
 Alpha virt. eigenvalues --   22.59110  22.61962  22.72720  22.86978  22.92625
 Alpha virt. eigenvalues --   23.38782  32.29951  43.86852  43.94501  44.14168
          Condensed to atoms (all electrons):
               1          2          3          4          5          6
     1  C    5.362574   0.193787   0.398343   0.445138   0.036802   0.067788
     2  C    0.193787   4.993185   0.010129  -0.054559  -0.025074   0.173780
     3  C    0.398343   0.010129   5.287395  -0.063194   0.216969  -0.066961
     4  H    0.445138  -0.054559  -0.063194   0.569965   0.013837   0.008061
     5  C    0.036802  -0.025074   0.216969   0.013837   4.897101  -0.006301
     6  C    0.067788   0.173780  -0.066961   0.008061  -0.006301   5.448294
     7  H   -0.073693   0.436605   0.022074  -0.010216  -0.007452  -0.059408
     8  C   -0.007269   0.244174  -0.030861   0.003488  -0.043427  -0.009778
     9  H   -0.057353   0.013302   0.434964  -0.011437  -0.053985  -0.002761
    10  C   -0.086299   0.011075   0.025384  -0.001956   0.237524   0.244175
    11  H    0.014452  -0.003818  -0.062640  -0.000215   0.444307   0.011802
    12  C   -0.040859  -0.017380  -0.026148  -0.000347   0.305042  -0.017742
    13  H    0.004421  -0.012641   0.004068  -0.000523  -0.002478  -0.011956
    14  H   -0.001338  -0.042756  -0.000519   0.001213   0.003621   0.006966
    15  N    0.006738  -0.026117  -0.009769  -0.000078   0.007798   0.170117
    16  C   -0.008430   0.005039   0.006203  -0.000569  -0.002261   0.154119
    17  H    0.006682  -0.004194  -0.001786   0.000182  -0.016518  -0.013921
    18  H   -0.011764   0.010824   0.012023  -0.000461  -0.038577  -0.060127
    19  H    0.005525  -0.007306   0.003252   0.000164  -0.024685   0.002027
    20  H   -0.003400   0.004578   0.003173  -0.000261  -0.032603  -0.000011
    21  O   -0.009190   0.008416   0.011034  -0.000499  -0.005073  -0.077193
    22  O    0.000202  -0.000532  -0.001231   0.000013   0.002180  -0.082418
    23  O    0.001635   0.010914  -0.000520  -0.000018   0.000200  -0.110310
    24  C   -0.000075   0.000053   0.000053  -0.000008  -0.000036   0.002728
    25  H   -0.000007  -0.000085   0.000004  -0.000001  -0.000000   0.001889
    26  H    0.000030   0.000507  -0.000001  -0.000001   0.000012  -0.002778
    27  H   -0.000053  -0.001053   0.000011  -0.000000  -0.000095  -0.001208
               7          8          9         10         11         12
     1  C   -0.073693  -0.007269  -0.057353  -0.086299   0.014452  -0.040859
     2  C    0.436605   0.244174   0.013302   0.011075  -0.003818  -0.017380
     3  C    0.022074  -0.030861   0.434964   0.025384  -0.062640  -0.026148
     4  H   -0.010216   0.003488  -0.011437  -0.001956  -0.000215  -0.000347
     5  C   -0.007452  -0.043427  -0.053985   0.237524   0.444307   0.305042
     6  C   -0.059408  -0.009778  -0.002761   0.244175   0.011802  -0.017742
     7  H    0.596143  -0.030583  -0.000047   0.007125   0.000089   0.005562
     8  C   -0.030583   5.041291  -0.001349  -0.010823   0.011535   0.322317
     9  H   -0.000047  -0.001349   0.567546   0.008088  -0.008338   0.006327
    10  C    0.007125  -0.010823   0.008088   5.183195  -0.055768  -0.019425
    11  H    0.000089   0.011535  -0.008338  -0.055768   0.637903  -0.050481
    12  C    0.005562   0.322317   0.006327  -0.019425  -0.050481   4.988248
    13  H   -0.000733   0.371050   0.000150  -0.000028  -0.000501  -0.018153
    14  H   -0.003287   0.405157  -0.000243   0.002212  -0.000266  -0.032314
    15  N    0.010627   0.002390  -0.000181  -0.016602  -0.000277   0.001636
    16  C   -0.003520   0.020250   0.000222   0.010333  -0.000843  -0.003584
    17  H   -0.000777  -0.002381  -0.000489   0.386228  -0.001231  -0.003614
    18  H    0.000413   0.004351   0.001105   0.397422  -0.003296   0.002658
    19  H   -0.000461  -0.016120  -0.000559  -0.003013  -0.001240   0.382300
    20  H   -0.000263  -0.026720   0.001342   0.007794  -0.004239   0.389884
    21  O    0.000279   0.000700   0.000114  -0.033076  -0.000007  -0.001182
    22  O    0.000200  -0.002196  -0.000003  -0.021424   0.000017   0.003896
    23  O    0.017483  -0.011066  -0.000003   0.001067   0.000006   0.001431
    24  C   -0.000373   0.000046   0.000000  -0.000035  -0.000002  -0.000036
    25  H   -0.000256   0.000124   0.000000   0.000001   0.000000  -0.000019
    26  H    0.000143  -0.000178  -0.000000   0.000001  -0.000000   0.000011
    27  H    0.000196   0.000715   0.000000   0.000226  -0.000000  -0.000024
              13         14         15         16         17         18
     1  C    0.004421  -0.001338   0.006738  -0.008430   0.006682  -0.011764
     2  C   -0.012641  -0.042756  -0.026117   0.005039  -0.004194   0.010824
     3  C    0.004068  -0.000519  -0.009769   0.006203  -0.001786   0.012023
     4  H   -0.000523   0.001213  -0.000078  -0.000569   0.000182  -0.000461
     5  C   -0.002478   0.003621   0.007798  -0.002261  -0.016518  -0.038577
     6  C   -0.011956   0.006966   0.170117   0.154119  -0.013921  -0.060127
     7  H   -0.000733  -0.003287   0.010627  -0.003520  -0.000777   0.000413
     8  C    0.371050   0.405157   0.002390   0.020250  -0.002381   0.004351
     9  H    0.000150  -0.000243  -0.000181   0.000222  -0.000489   0.001105
    10  C   -0.000028   0.002212  -0.016602   0.010333   0.386228   0.397422
    11  H   -0.000501  -0.000266  -0.000277  -0.000843  -0.001231  -0.003296
    12  C   -0.018153  -0.032314   0.001636  -0.003584  -0.003614   0.002658
    13  H    0.606616  -0.034909   0.000439   0.003617  -0.000558  -0.000307
    14  H   -0.034909   0.612626  -0.000286  -0.000252  -0.000083   0.000160
    15  N    0.000439  -0.000286   6.595869   0.001819   0.005788  -0.024102
    16  C    0.003617  -0.000252   0.001819   4.661100  -0.021369   0.011030
    17  H   -0.000558  -0.000083   0.005788  -0.021369   0.542025  -0.027688
    18  H   -0.000307   0.000160  -0.024102   0.011030  -0.027688   0.567744
    19  H   -0.015492   0.007225  -0.000054  -0.002728   0.002309   0.000461
    20  H    0.006517  -0.017507   0.000052   0.000624   0.000223  -0.000403
    21  O   -0.000048   0.000026   0.226600   0.011341  -0.002392   0.044052
    22  O   -0.001063   0.000010   0.000198   0.643211   0.022077  -0.000687
    23  O    0.004268  -0.000274  -0.009153   0.368264   0.001407  -0.000284
    24  C   -0.000397   0.000017   0.000539  -0.044246  -0.000358   0.000061
    25  H   -0.000061  -0.000000   0.000095   0.006109  -0.000003  -0.000000
    26  H    0.000183  -0.000003   0.000149  -0.012139  -0.000028  -0.000004
    27  H   -0.000349   0.000003  -0.000120  -0.004813  -0.000056   0.000005
              19         20         21         22         23         24
     1  C    0.005525  -0.003400  -0.009190   0.000202   0.001635  -0.000075
     2  C   -0.007306   0.004578   0.008416  -0.000532   0.010914   0.000053
     3  C    0.003252   0.003173   0.011034  -0.001231  -0.000520   0.000053
     4  H    0.000164  -0.000261  -0.000499   0.000013  -0.000018  -0.000008
     5  C   -0.024685  -0.032603  -0.005073   0.002180   0.000200  -0.000036
     6  C    0.002027  -0.000011  -0.077193  -0.082418  -0.110310   0.002728
     7  H   -0.000461  -0.000263   0.000279   0.000200   0.017483  -0.000373
     8  C   -0.016120  -0.026720   0.000700  -0.002196  -0.011066   0.000046
     9  H   -0.000559   0.001342   0.000114  -0.000003  -0.000003   0.000000
    10  C   -0.003013   0.007794  -0.033076  -0.021424   0.001067  -0.000035
    11  H   -0.001240  -0.004239  -0.000007   0.000017   0.000006  -0.000002
    12  C    0.382300   0.389884  -0.001182   0.003896   0.001431  -0.000036
    13  H   -0.015492   0.006517  -0.000048  -0.001063   0.004268  -0.000397
    14  H    0.007225  -0.017507   0.000026   0.000010  -0.000274   0.000017
    15  N   -0.000054   0.000052   0.226600   0.000198  -0.009153   0.000539
    16  C   -0.002728   0.000624   0.011341   0.643211   0.368264  -0.044246
    17  H    0.002309   0.000223  -0.002392   0.022077   0.001407  -0.000358
    18  H    0.000461  -0.000403   0.044052  -0.000687  -0.000284   0.000061
    19  H    0.613718  -0.035110   0.000005   0.000908  -0.000054  -0.000031
    20  H   -0.035110   0.616421   0.000003   0.000047  -0.000011   0.000000
    21  O    0.000005   0.000003   8.022434  -0.000042   0.000462   0.000023
    22  O    0.000908   0.000047  -0.000042   7.812920  -0.085174   0.000659
    23  O   -0.000054  -0.000011   0.000462  -0.085174   7.945623   0.222092
    24  C   -0.000031   0.000000   0.000023   0.000659   0.222092   4.777612
    25  H    0.000000  -0.000000  -0.000006   0.002011  -0.032838   0.392778
    26  H   -0.000006  -0.000000  -0.000005   0.006876  -0.033395   0.418978
    27  H    0.000016   0.000002   0.000005   0.006604  -0.039390   0.413383
              25         26         27
     1  C   -0.000007   0.000030  -0.000053
     2  C   -0.000085   0.000507  -0.001053
     3  C    0.000004  -0.000001   0.000011
     4  H   -0.000001  -0.000001  -0.000000
     5  C   -0.000000   0.000012  -0.000095
     6  C    0.001889  -0.002778  -0.001208
     7  H   -0.000256   0.000143   0.000196
     8  C    0.000124  -0.000178   0.000715
     9  H    0.000000  -0.000000   0.000000
    10  C    0.000001   0.000001   0.000226
    11  H    0.000000  -0.000000  -0.000000
    12  C   -0.000019   0.000011  -0.000024
    13  H   -0.000061   0.000183  -0.000349
    14  H   -0.000000  -0.000003   0.000003
    15  N    0.000095   0.000149  -0.000120
    16  C    0.006109  -0.012139  -0.004813
    17  H   -0.000003  -0.000028  -0.000056
    18  H   -0.000000  -0.000004   0.000005
    19  H    0.000000  -0.000006   0.000016
    20  H   -0.000000  -0.000000   0.000002
    21  O   -0.000006  -0.000005   0.000005
    22  O    0.002011   0.006876   0.006604
    23  O   -0.032838  -0.033395  -0.039390
    24  C    0.392778   0.418978   0.413383
    25  H    0.552549  -0.025560  -0.027507
    26  H   -0.025560   0.556464  -0.041166
    27  H   -0.027507  -0.041166   0.567673
 Mulliken charges:
               1
     1  C   -0.244386
     2  C    0.079140
     3  C   -0.171452
     4  H    0.102280
     5  C    0.093170
     6  C    0.231124
     7  H    0.094128
     8  C   -0.234838
     9  H    0.103587
    10  C   -0.273403
    11  H    0.073050
    12  C   -0.178006
    13  H    0.098867
    14  H    0.094799
    15  N    0.055882
    16  C    0.201471
    17  H    0.130527
    18  H    0.115390
    19  H    0.088947
    20  H    0.089868
    21  O   -0.196782
    22  O   -0.307262
    23  O   -0.252363
    24  C   -0.183427
    25  H    0.130784
    26  H    0.131908
    27  H    0.126995
 Sum of Mulliken charges =  -0.00000
 Mulliken charges with hydrogens summed into heavy atoms:
               1
     1  C   -0.142106
     2  C    0.173269
     3  C   -0.067864
     5  C    0.166220
     6  C    0.231124
     8  C   -0.041172
    10  C   -0.027485
    12  C    0.000810
    15  N    0.055882
    16  C    0.201471
    21  O   -0.196782
    22  O   -0.307262
    23  O   -0.252363
    24  C    0.206260
 Electronic spatial extent (au):  <R**2>=           4457.2486
 Charge=             -0.0000 electrons
 Dipole moment (field-independent basis, Debye):
    X=             -0.6906    Y=              2.2986    Z=              0.5798  Tot=              2.4692
 Quadrupole moment (field-independent basis, Debye-Ang):
   XX=            -84.0181   YY=            -90.1938   ZZ=            -74.0537
   XY=              2.0844   XZ=             -8.5290   YZ=              1.8430
 Traceless Quadrupole moment (field-independent basis, Debye-Ang):
   XX=             -1.2629   YY=             -7.4386   ZZ=              8.7015
   XY=              2.0844   XZ=             -8.5290   YZ=              1.8430
 Octapole moment (field-independent basis, Debye-Ang**2):
  XXX=           -212.6929  YYY=            204.1761  ZZZ=           -429.8475  XYY=            -72.5523
  XXY=             68.7183  XXZ=           -184.4814  XZZ=           -117.3275  YZZ=             54.8958
  YYZ=           -166.0195  XYZ=             14.2419
 Hexadecapole moment (field-independent basis, Debye-Ang**3):
 XXXX=           -983.1639 YYYY=          -1247.4145 ZZZZ=          -3091.4912 XXXY=             67.1176
 XXXZ=           -317.5275 YYYX=             53.9735 YYYZ=            513.5888 ZZZX=           -524.9104
 ZZZY=            444.6722 XXYY=           -378.9964 XXZZ=           -842.1556 YYZZ=           -772.5181
 XXYZ=            209.1697 YYXZ=           -107.6017 ZZXY=             99.0457
 N-N= 9.658796249703D+02 E-N=-3.494534584060D+03  KE= 6.662557773329D+02
 1\1\GINC-BHC0106\SP\RB3LYP\def2TZVP\C10H13N1O3\DHANAWAY\10-Jun-2022\0\
 \# sp B3LYP/Def2TZVP NoSymm\\int_initalOpt_zmat_AlignedSp\\0,1\C\C,1,1
 .50758851\C,1,1.3312603,2,114.40389444\H,1,1.08223005,2,121.25768087,3
 ,-179.74148314,0\C,3,1.50645432,1,114.24950703,2,0.59819827,0\C,2,1.56
 817229,1,107.77765151,3,-57.70770722,0\H,2,1.08683924,1,112.76396789,6
 ,-121.19301773,0\C,2,1.55198666,1,107.831149,6,115.35308887,0\H,3,1.08
 284615,1,123.79817336,5,179.83733579,0\C,5,1.55008896,3,108.44973686,1
 ,57.60792949,0\H,5,1.08990871,3,112.19317838,10,121.46126369,0\C,5,1.5
 501628,3,107.92568471,10,-116.43397053,0\H,8,1.0921289,2,110.12664973,
 1,-177.56115565,0\H,8,1.09042825,2,108.21237461,13,-116.32145855,0\N,6
 ,1.55801242,2,103.84147734,1,-68.87451185,0\C,6,1.53313171,2,111.44666
 429,15,-110.28021745,0\H,10,1.08889093,5,110.55584442,3,-176.26016496,
 0\H,10,1.09094849,5,110.23728412,17,-118.85772547,0\H,12,1.09207956,5,
 109.19906304,3,176.39977765,0\H,12,1.09061092,5,109.82997934,19,117.27
 908637,0\O,15,1.18746717,6,115.40502875,2,122.25172942,0\O,16,1.204409
 54,6,124.85831016,2,-130.61208379,0\O,16,1.34069103,6,111.53792792,22,
 -178.96169341,0\C,23,1.43796141,16,116.09610548,6,177.41787078,0\H,24,
 1.08621539,23,105.47545117,16,-178.83601442,0\H,24,1.08913617,23,110.3
 6354925,25,119.56635313,0\H,24,1.08934914,23,110.46442108,25,-119.6413
 1448,0\\Version=ES64L-G16RevA.03\HF=-669.4711121\RMSD=5.670e-09\Dipole
 =-0.2716934,0.9043524,0.2281218\Quadrupole=-0.9389416,-5.5304038,6.469
 3454,1.5496977,-6.3410824,1.3702368\PG=C01 [X(C10H13N1O3)]\\@


 NATURE GIVES TO EVERY TIME AND SEASON SOME BEAUTY OF ITS OWN.

                                                    --DICKENS
 Job cpu time:       0 days  0 hours 59 minutes  8.3 seconds.
 Elapsed time:       0 days  0 hours  4 minutes 56.1 seconds.
 File lengths (MBytes):  RWF=    147 Int=      0 D2E=      0 Chk=     32 Scr=      1
 Normal termination of Gaussian 16 at Fri Jun 10 03:49:15 2022.
