 Entering Gaussian System, Link 0=g16
 Input=int_initalOpt_zmat_sp.gjf
 Output=int_initalOpt_zmat_sp.out
 Initial command:
 /software/gaussian/g16-a03/l1.exe "/local_scratch/11174426/Gau-27082.inp" -scrdir="/local_scratch/11174426/"
 Entering Link 1 = /software/gaussian/g16-a03/l1.exe PID=     27087.
  
 Copyright (c) 1988,1990,1992,1993,1995,1998,2003,2009,2016,
            Gaussian, Inc.  All Rights Reserved.
  
 This is part of the Gaussian(R) 16 program.  It is based on
 the Gaussian(R) 09 system (copyright 2009, Gaussian, Inc.),
 the Gaussian(R) 03 system (copyright 2003, Gaussian, Inc.),
 the Gaussian(R) 98 system (copyright 1998, Gaussian, Inc.),
 the Gaussian(R) 94 system (copyright 1995, Gaussian, Inc.),
 the Gaussian 92(TM) system (copyright 1992, Gaussian, Inc.),
 the Gaussian 90(TM) system (copyright 1990, Gaussian, Inc.),
 the Gaussian 88(TM) system (copyright 1988, Gaussian, Inc.),
 the Gaussian 86(TM) system (copyright 1986, Carnegie Mellon
 University), and the Gaussian 82(TM) system (copyright 1983,
 Carnegie Mellon University). Gaussian is a federally registered
 trademark of Gaussian, Inc.
  
 This software contains proprietary and confidential information,
 including trade secrets, belonging to Gaussian, Inc.
  
 This software is provided under written license and may be
 used, copied, transmitted, or stored only in accord with that
 written license.
  
 The following legend is applicable only to US Government
 contracts under FAR:
  
                    RESTRICTED RIGHTS LEGEND
  
 Use, reproduction and disclosure by the US Government is
 subject to restrictions as set forth in subparagraphs (a)
 and (c) of the Commercial Computer Software - Restricted
 Rights clause in FAR 52.227-19.
  
 Gaussian, Inc.
 340 Quinnipiac St., Bldg. 40, Wallingford CT 06492
  
  
 ---------------------------------------------------------------
 Warning -- This program may not be used in any manner that
 competes with the business of Gaussian, Inc. or will provide
 assistance to any competitor of Gaussian, Inc.  The licensee
 of this program is prohibited from giving any competitor of
 Gaussian, Inc. access to this program.  By using this program,
 the user acknowledges that Gaussian, Inc. is engaged in the
 business of creating and licensing software in the field of
 computational chemistry and represents and warrants to the
 licensee that it is not a competitor of Gaussian, Inc. and that
 it will not use this program in any manner prohibited above.
 ---------------------------------------------------------------
  

 Cite this work as:
 Gaussian 16, Revision A.03,
 M. J. Frisch, G. W. Trucks, H. B. Schlegel, G. E. Scuseria, 
 M. A. Robb, J. R. Cheeseman, G. Scalmani, V. Barone, 
 G. A. Petersson, H. Nakatsuji, X. Li, M. Caricato, A. V. Marenich, 
 J. Bloino, B. G. Janesko, R. Gomperts, B. Mennucci, H. P. Hratchian, 
 J. V. Ortiz, A. F. Izmaylov, J. L. Sonnenberg, D. Williams-Young, 
 F. Ding, F. Lipparini, F. Egidi, J. Goings, B. Peng, A. Petrone, 
 T. Henderson, D. Ranasinghe, V. G. Zakrzewski, J. Gao, N. Rega, 
 G. Zheng, W. Liang, M. Hada, M. Ehara, K. Toyota, R. Fukuda, 
 J. Hasegawa, M. Ishida, T. Nakajima, Y. Honda, O. Kitao, H. Nakai, 
 T. Vreven, K. Throssell, J. A. Montgomery, Jr., J. E. Peralta, 
 F. Ogliaro, M. J. Bearpark, J. J. Heyd, E. N. Brothers, K. N. Kudin, 
 V. N. Staroverov, T. A. Keith, R. Kobayashi, J. Normand, 
 K. Raghavachari, A. P. Rendell, J. C. Burant, S. S. Iyengar, 
 J. Tomasi, M. Cossi, J. M. Millam, M. Klene, C. Adamo, R. Cammi, 
 J. W. Ochterski, R. L. Martin, K. Morokuma, O. Farkas, 
 J. B. Foresman, and D. J. Fox, Gaussian, Inc., Wallingford CT, 2016.
 
 ******************************************
 Gaussian 16:  ES64L-G16RevA.03 25-Dec-2016
                10-Jun-2022 
 ******************************************
 %nprocshared=12
 Will use up to   12 processors via shared memory.
 %chk=checkpoint.chk
 %mem=12GB
 --------------------------
 # sp B3LYP/Def2TZVP NoSymm
 --------------------------
 1/38=1,172=1/1;
 2/12=2,15=1,17=6,18=5,40=1/2;
 3/5=44,7=101,11=2,25=1,30=1,74=-5/1,2,3;
 4//1;
 5/5=2,38=5/2;
 6/7=2,8=2,9=2,10=2,28=1/1;
 99/5=1,9=1/99;
 ----------------------------
 int_initalOpt_zmat_AlignedSp
 ----------------------------
 Symbolic Z-matrix:
 Charge =  0 Multiplicity = 1
 H
 C                    1    R2
 C                    2    R3       1    A3
 C                    2    R4       1    A4       3    D4       0
 H                    3    R5       2    A5       1    D5       0
 C                    3    R6       2    A6       5    D6       0
 N                    4    R7       2    A7       1    D7       0
 H                    4    R8       2    A8       7    D8       0
 H                    6    R9       3    A9       2    D9       0
 H                    7    R10      4    A10      2    D10      0
       Variables:
  R2                    1.0772                   
  R3                    1.42059                  
  R4                    1.37402                  
  R5                    1.0772                   
  R6                    1.37402                  
  R7                    1.37049                  
  R8                    1.07618                  
  R9                    1.07618                  
  R10                   1.00364                  
  A3                  126.87086                  
  A4                  125.71504                  
  A5                  126.87083                  
  A6                  107.41413                  
  A7                  107.66856                  
  A8                  131.05516                  
  A9                  131.0551                   
  A10                 125.08267                  
  D4                  180.                       
  D5                    0.00011                  
  D6                  179.99982                  
  D7                  179.99986                  
  D8                 -179.99978                  
  D9                 -179.99987                  
  D10                -179.9994                   
 
                          Input orientation:                          
 ---------------------------------------------------------------------
 Center     Atomic      Atomic             Coordinates (Angstroms)
 Number     Number       Type             X           Y           Z
 ---------------------------------------------------------------------
      1          1           0        0.000000    0.000000    0.000000
      2          6           0        0.000000    0.000000    1.077201
      3          6           0        1.136457    0.000000    1.929573
      4          6           0       -1.115609    0.000000    1.879291
      5          1           0        2.170580    0.000002    1.627991
      6          6           0        0.678777    0.000002    3.225128
      7          7           0       -0.691046   -0.000003    3.182364
      8          1           0       -2.163230   -0.000001    1.632999
      9          1           0        1.208522    0.000004    4.161900
     10          1           0       -1.293245   -0.000012    3.985268
 ---------------------------------------------------------------------
                    Distance matrix (angstroms):
                    1          2          3          4          5
     1  H    0.000000
     2  C    1.077201   0.000000
     3  C    2.239372   1.420589   0.000000
     4  C    2.185479   1.374021   2.252627   0.000000
     5  H    2.713259   2.239372   1.077201   3.295784   0.000000
     6  C    3.295784   2.252628   1.374021   2.243012   2.185480
     7  N    3.256529   2.215684   2.215683   1.370493   3.256529
     8  H    2.710396   2.233489   3.312988   1.076182   4.333813
     9  H    4.333813   3.312989   2.233490   3.257589   2.710397
    10  H    4.189850   3.182662   3.182661   2.113455   4.189850
                    6          7          8          9         10
     6  C    0.000000
     7  N    1.370491   0.000000
     8  H    3.257588   2.137254   0.000000
     9  H    1.076183   2.137253   4.214742   0.000000
    10  H    2.113453   1.003643   2.507995   2.507995   0.000000
 Symmetry turned off by external request.
 Stoichiometry    C4H5N
 Framework group  C1[X(C4H5N)]
 Deg. of freedom    24
 Full point group                 C1      NOp   1
 Rotational constants (GHZ):           9.1960221           9.0642704           4.5648355
 Standard basis: def2TZVP (5D, 7F)
   185 basis functions,   295 primitive gaussians,   210 cartesian basis functions
    18 alpha electrons       18 beta electrons
       nuclear repulsion energy       161.2775701439 Hartrees.
 NAtoms=   10 NActive=   10 NUniq=   10 SFac= 1.00D+00 NAtFMM=   60 NAOKFM=F Big=F
 Integral buffers will be    131072 words long.
 Raffenetti 2 integral format.
 Two-electron integral symmetry is turned off.
 One-electron integrals computed using PRISM.
   1 Symmetry operations used in ECPInt.
 ECPInt:  NShTT=    2850 NPrTT=    8640 LenC2=    2844 LenP2D=    7462.
 LDataN:  DoStor=T MaxTD1= 6 Len=  172
 NBasis=   185 RedAO= T EigKep=  5.47D-05  NBF=   185
 NBsUse=   185 1.00D-06 EigRej= -1.00D+00 NBFU=   185
 ExpMin= 9.52D-02 ExpMax= 1.97D+04 ExpMxC= 6.73D+02 IAcc=3 IRadAn=         5 AccDes= 0.00D+00
 Harris functional with IExCor=  402 and IRadAn=       5 diagonalized for initial guess.
 HarFok:  IExCor=  402 AccDes= 0.00D+00 IRadAn=         5 IDoV= 1 UseB2=F ITyADJ=14
 ICtDFT=  3500011 ScaDFX=  1.000000  1.000000  1.000000  1.000000
 FoFCou: FMM=F IPFlag=           0 FMFlag=      100000 FMFlg1=           0
         NFxFlg=           0 DoJE=T BraDBF=F KetDBF=T FulRan=T
         wScrn=  0.000000 ICntrl=       500 IOpCl=  0 I1Cent=   200000004 NGrid=           0
         NMat0=    1 NMatS0=      1 NMatT0=    0 NMatD0=    1 NMtDS0=    0 NMtDT0=    0
 Symmetry not used in FoFCou.
 Keep R1 ints in memory in canonical form, NReq=160464041.
 Requested convergence on RMS density matrix=1.00D-08 within 128 cycles.
 Requested convergence on MAX density matrix=1.00D-06.
 Requested convergence on             energy=1.00D-06.
 No special actions if energy rises.
 Integral accuracy reduced to 1.0D-05 until final iterations.
 Initial convergence to 1.0D-05 achieved.  Increase integral accuracy.
 SCF Done:  E(RB3LYP) =  -210.253439261     A.U. after   12 cycles
            NFock= 12  Conv=0.64D-08     -V/T= 2.0051

 **********************************************************************

            Population analysis using the SCF density.

 **********************************************************************

 Alpha  occ. eigenvalues --  -14.35971 -10.18827 -10.18824 -10.15226 -10.15181
 Alpha  occ. eigenvalues --   -0.97700  -0.77291  -0.72071  -0.59105  -0.56575
 Alpha  occ. eigenvalues --   -0.54566  -0.43157  -0.42480  -0.40950  -0.39027
 Alpha  occ. eigenvalues --   -0.37654  -0.24775  -0.21672
 Alpha virt. eigenvalues --    0.02870   0.02882   0.06955   0.08053   0.08873
 Alpha virt. eigenvalues --    0.10058   0.10708   0.14189   0.17867   0.19525
 Alpha virt. eigenvalues --    0.20843   0.20869   0.21185   0.25813   0.26324
 Alpha virt. eigenvalues --    0.27875   0.28553   0.33765   0.35778   0.36103
 Alpha virt. eigenvalues --    0.37844   0.39563   0.41882   0.41934   0.42761
 Alpha virt. eigenvalues --    0.42821   0.44702   0.46188   0.49982   0.51520
 Alpha virt. eigenvalues --    0.54019   0.57273   0.59527   0.62466   0.65688
 Alpha virt. eigenvalues --    0.65765   0.72584   0.75106   0.75335   0.77163
 Alpha virt. eigenvalues --    0.84155   0.89109   0.94476   0.96080   0.97065
 Alpha virt. eigenvalues --    1.00191   1.05893   1.08575   1.09377   1.11397
 Alpha virt. eigenvalues --    1.15148   1.19077   1.19994   1.27752   1.27994
 Alpha virt. eigenvalues --    1.28000   1.29819   1.32906   1.43455   1.43468
 Alpha virt. eigenvalues --    1.45585   1.46978   1.50270   1.52026   1.54442
 Alpha virt. eigenvalues --    1.60193   1.60206   1.62066   1.64099   1.67084
 Alpha virt. eigenvalues --    1.69721   1.77192   1.87654   1.89352   1.93652
 Alpha virt. eigenvalues --    1.95829   1.96714   1.98720   2.07286   2.12257
 Alpha virt. eigenvalues --    2.15508   2.18746   2.21562   2.24031   2.24863
 Alpha virt. eigenvalues --    2.26980   2.39287   2.45794   2.49922   2.54358
 Alpha virt. eigenvalues --    2.54991   2.60771   2.61852   2.63383   2.64614
 Alpha virt. eigenvalues --    2.66553   2.69942   2.71933   2.73586   2.75049
 Alpha virt. eigenvalues --    2.77736   2.84276   2.84463   2.87688   2.94188
 Alpha virt. eigenvalues --    2.98947   2.99672   3.01557   3.03769   3.05413
 Alpha virt. eigenvalues --    3.05643   3.08278   3.09790   3.12136   3.17785
 Alpha virt. eigenvalues --    3.18799   3.27495   3.28676   3.29578   3.29831
 Alpha virt. eigenvalues --    3.35348   3.39172   3.45163   3.48393   3.48922
 Alpha virt. eigenvalues --    3.49737   3.53546   3.57064   3.60437   3.64373
 Alpha virt. eigenvalues --    3.81890   3.88821   3.97157   4.00771   4.10984
 Alpha virt. eigenvalues --    4.12443   4.19722   4.20569   4.23305   4.29655
 Alpha virt. eigenvalues --    4.31933   4.36715   4.36934   4.56221   4.63967
 Alpha virt. eigenvalues --    4.69301   4.71930   4.75483   4.81780   4.86126
 Alpha virt. eigenvalues --    4.86715   4.96050   5.01588   5.04401   5.19630
 Alpha virt. eigenvalues --    5.20193   5.26760   5.43828   5.48023   5.62695
 Alpha virt. eigenvalues --    5.80599   5.94245  22.13844  22.50134  22.66734
 Alpha virt. eigenvalues --   22.85590  32.19136
          Condensed to atoms (all electrons):
               1          2          3          4          5          6
     1  H    0.552630   0.434785  -0.051367  -0.053035  -0.004277   0.013706
     2  C    0.434785   4.875140   0.507371   0.580931  -0.051367  -0.064237
     3  C   -0.051367   0.507371   4.875170  -0.064237   0.434791   0.580937
     4  C   -0.053035   0.580931  -0.064237   4.954024   0.013706  -0.148704
     5  H   -0.004277  -0.051367   0.434791   0.013706   0.552628  -0.053036
     6  C    0.013706  -0.064237   0.580937  -0.148704  -0.053036   4.954017
     7  N    0.005152  -0.100822  -0.100831   0.400230   0.005152   0.400236
     8  H   -0.002148  -0.025500   0.005363   0.411573  -0.000160   0.006789
     9  H   -0.000160   0.005362  -0.025495   0.006789  -0.002148   0.411570
    10  H   -0.000270   0.008099   0.008099  -0.041114  -0.000270  -0.041114
               7          8          9         10
     1  H    0.005152  -0.002148  -0.000160  -0.000270
     2  C   -0.100822  -0.025500   0.005362   0.008099
     3  C   -0.100831   0.005363  -0.025495   0.008099
     4  C    0.400230   0.411573   0.006789  -0.041114
     5  H    0.005152  -0.000160  -0.002148  -0.000270
     6  C    0.400236   0.006789   0.411570  -0.041114
     7  N    6.303213  -0.036371  -0.036368   0.380635
     8  H   -0.036371   0.516736  -0.000177  -0.004118
     9  H   -0.036368  -0.000177   0.516732  -0.004118
    10  H    0.380635  -0.004118  -0.004118   0.480059
 Mulliken charges:
               1
     1  H    0.104985
     2  C   -0.169762
     3  C   -0.169799
     4  C   -0.060162
     5  H    0.104982
     6  C   -0.060162
     7  N   -0.220224
     8  H    0.128014
     9  H    0.128014
    10  H    0.214114
 Sum of Mulliken charges =  -0.00000
 Mulliken charges with hydrogens summed into heavy atoms:
               1
     2  C   -0.064777
     3  C   -0.064817
     4  C    0.067852
     6  C    0.067851
     7  N   -0.006110
 Electronic spatial extent (au):  <R**2>=            972.8075
 Charge=             -0.0000 electrons
 Dipole moment (field-independent basis, Debye):
    X=             -1.1450    Y=             -0.0000    Z=              1.5266  Tot=              1.9083
 Quadrupole moment (field-independent basis, Debye-Ang):
   XX=            -25.9346   YY=            -34.0566   ZZ=            -18.0715
   XY=              0.0000   XZ=             -4.2343   YZ=             -0.0001
 Traceless Quadrupole moment (field-independent basis, Debye-Ang):
   XX=              0.0863   YY=             -8.0357   ZZ=              7.9494
   XY=              0.0000   XZ=             -4.2343   YZ=             -0.0001
 Octapole moment (field-independent basis, Debye-Ang**2):
  XXX=             -4.3379  YYY=              0.0000  ZZZ=           -139.1895  XYY=             -0.7492
  XXY=             -0.0000  XXZ=            -55.8371  XZZ=            -16.1589  YZZ=             -0.0002
  YYZ=            -76.0032  XYZ=              0.0001
 Hexadecapole moment (field-independent basis, Debye-Ang**3):
 XXXX=           -170.9064 YYYY=            -40.7118 ZZZZ=           -796.7409 XXXY=             -0.0000
 XXXZ=            -16.1400 YYYX=             -0.0001 YYYZ=              0.0001 ZZZX=            -65.4767
 ZZZY=             -0.0009 XXYY=            -43.8776 XXZZ=           -174.2312 YYZZ=           -212.4749
 XXYZ=             -0.0001 YYXZ=             -3.3873 ZZXY=              0.0005
 N-N= 1.612775701439D+02 E-N=-8.110615757136D+02  KE= 2.091871028380D+02
 1\1\GINC-BHC0005\SP\RB3LYP\def2TZVP\C4H5N1\DHANAWAY\10-Jun-2022\0\\# s
 p B3LYP/Def2TZVP NoSymm\\int_initalOpt_zmat_AlignedSp\\0,1\H\C,1,1.077
 20052\C,2,1.420589,1,126.87085874\C,2,1.37402098,1,125.71503849,3,180.
 ,0\H,3,1.07720135,2,126.8708305,1,0.0001127,0\C,3,1.37402123,2,107.414
 1286,5,179.99981624,0\N,4,1.37049311,2,107.66856017,1,179.99986334,0\H
 ,4,1.07618219,2,131.05515948,7,-179.99978424,0\H,6,1.07618293,3,131.05
 510411,2,-179.99987016,0\H,7,1.0036425,4,125.08267231,2,-179.99939921,
 0\\Version=ES64L-G16RevA.03\HF=-210.2534393\RMSD=6.435e-09\Dipole=-0.4
 50483,-0.0000046,0.6006097\Quadrupole=0.0641723,-5.974332,5.9101598,0.
 0000247,-3.1481199,-0.0000394\PG=C01 [X(C4H5N1)]\\@


 Once you get people laughing, they're
 listening and you can tell them almost anything.
                                 -- Herb Gardner
 Job cpu time:       0 days  0 hours  2 minutes 24.6 seconds.
 Elapsed time:       0 days  0 hours  0 minutes 17.1 seconds.
 File lengths (MBytes):  RWF=     19 Int=      0 D2E=      0 Chk=     32 Scr=      1
 Normal termination of Gaussian 16 at Fri Jun 10 22:23:22 2022.
