 Entering Gaussian System, Link 0=g16
 Input=ts_zmat_field_N50.gjf
 Output=ts_zmat_field_N50.out
 Initial command:
 /software/gaussian/g16-a03/l1.exe "/local_scratch/11174465/Gau-2920.inp" -scrdir="/local_scratch/11174465/"
 Entering Link 1 = /software/gaussian/g16-a03/l1.exe PID=      2921.
  
 Copyright (c) 1988,1990,1992,1993,1995,1998,2003,2009,2016,
            Gaussian, Inc.  All Rights Reserved.
  
 This is part of the Gaussian(R) 16 program.  It is based on
 the Gaussian(R) 09 system (copyright 2009, Gaussian, Inc.),
 the Gaussian(R) 03 system (copyright 2003, Gaussian, Inc.),
 the Gaussian(R) 98 system (copyright 1998, Gaussian, Inc.),
 the Gaussian(R) 94 system (copyright 1995, Gaussian, Inc.),
 the Gaussian 92(TM) system (copyright 1992, Gaussian, Inc.),
 the Gaussian 90(TM) system (copyright 1990, Gaussian, Inc.),
 the Gaussian 88(TM) system (copyright 1988, Gaussian, Inc.),
 the Gaussian 86(TM) system (copyright 1986, Carnegie Mellon
 University), and the Gaussian 82(TM) system (copyright 1983,
 Carnegie Mellon University). Gaussian is a federally registered
 trademark of Gaussian, Inc.
  
 This software contains proprietary and confidential information,
 including trade secrets, belonging to Gaussian, Inc.
  
 This software is provided under written license and may be
 used, copied, transmitted, or stored only in accord with that
 written license.
  
 The following legend is applicable only to US Government
 contracts under FAR:
  
                    RESTRICTED RIGHTS LEGEND
  
 Use, reproduction and disclosure by the US Government is
 subject to restrictions as set forth in subparagraphs (a)
 and (c) of the Commercial Computer Software - Restricted
 Rights clause in FAR 52.227-19.
  
 Gaussian, Inc.
 340 Quinnipiac St., Bldg. 40, Wallingford CT 06492
  
  
 ---------------------------------------------------------------
 Warning -- This program may not be used in any manner that
 competes with the business of Gaussian, Inc. or will provide
 assistance to any competitor of Gaussian, Inc.  The licensee
 of this program is prohibited from giving any competitor of
 Gaussian, Inc. access to this program.  By using this program,
 the user acknowledges that Gaussian, Inc. is engaged in the
 business of creating and licensing software in the field of
 computational chemistry and represents and warrants to the
 licensee that it is not a competitor of Gaussian, Inc. and that
 it will not use this program in any manner prohibited above.
 ---------------------------------------------------------------
  

 Cite this work as:
 Gaussian 16, Revision A.03,
 M. J. Frisch, G. W. Trucks, H. B. Schlegel, G. E. Scuseria, 
 M. A. Robb, J. R. Cheeseman, G. Scalmani, V. Barone, 
 G. A. Petersson, H. Nakatsuji, X. Li, M. Caricato, A. V. Marenich, 
 J. Bloino, B. G. Janesko, R. Gomperts, B. Mennucci, H. P. Hratchian, 
 J. V. Ortiz, A. F. Izmaylov, J. L. Sonnenberg, D. Williams-Young, 
 F. Ding, F. Lipparini, F. Egidi, J. Goings, B. Peng, A. Petrone, 
 T. Henderson, D. Ranasinghe, V. G. Zakrzewski, J. Gao, N. Rega, 
 G. Zheng, W. Liang, M. Hada, M. Ehara, K. Toyota, R. Fukuda, 
 J. Hasegawa, M. Ishida, T. Nakajima, Y. Honda, O. Kitao, H. Nakai, 
 T. Vreven, K. Throssell, J. A. Montgomery, Jr., J. E. Peralta, 
 F. Ogliaro, M. J. Bearpark, J. J. Heyd, E. N. Brothers, K. N. Kudin, 
 V. N. Staroverov, T. A. Keith, R. Kobayashi, J. Normand, 
 K. Raghavachari, A. P. Rendell, J. C. Burant, S. S. Iyengar, 
 J. Tomasi, M. Cossi, J. M. Millam, M. Klene, C. Adamo, R. Cammi, 
 J. W. Ochterski, R. L. Martin, K. Morokuma, O. Farkas, 
 J. B. Foresman, and D. J. Fox, Gaussian, Inc., Wallingford CT, 2016.
 
 ******************************************
 Gaussian 16:  ES64L-G16RevA.03 25-Dec-2016
                10-Jun-2022 
 ******************************************
 %nprocshared=12
 Will use up to   12 processors via shared memory.
 %chk=checkpoint.chk
 %mem=12GB
 ----------------------------------------------------------------------
 # Opt=(TS, CalcFC, noeigentest, Z-matrix, MaxStep=10) geom=allcheckpoi
 nt guess=read Field=read NoSymm B3LYP/Def2TZVP freq=noraman pop=none
 ----------------------------------------------------------------------
 1/5=1,8=10,10=4,11=1,18=40,26=3,29=7,38=1/1,3;
 2/12=2,15=1,29=3,40=1/2;
 3/5=44,7=101,11=2,14=-6,25=1,30=1,71=2,74=-5,116=-2,140=1/1,2,3;
 4/5=1/1;
 5/5=2,38=6/2;
 8/6=4,10=90,11=11/1;
 11/6=1,8=1,9=11,15=111,16=1,31=1/1,2,10;
 10/6=1,13=1,31=1/2;
 7/10=1,18=20,25=1,30=1/1,2,3,16;
 1/5=1,8=10,10=4,11=1,18=40,26=3/3(2);
 2/15=1,29=3/2;
 99//99;
 2/15=1,29=3/2;
 3/5=44,7=101,11=2,14=-2,25=1,30=1,71=1,74=-5/1,2,3;
 4/5=5,16=3,69=1/1;
 5/5=2,38=5/2;
 7/30=1/1,2,3,16;
 1/5=1,8=10,11=1,18=40,26=3/3(-5);
 2/15=1,29=3/2;
 99/9=1/99;
 Structure from the checkpoint file:  "checkpoint.chk"
 -----------------
 ts_zmat_initalOpt
 -----------------
 Charge =  0 Multiplicity = 1
 Z-Matrix found in chk file.
 H
 C,1,R2
 C,2,R3,1,A3
 C,2,R4,1,A4,3,D4,0
 H,3,R5,2,A5,1,D5,0
 H,4,R6,2,A6,1,D6,0
 C,3,R7,2,A7,5,D7,0
 N,4,R8,2,A8,6,D8,0
 H,4,R9,2,A9,6,D9,0
 H,7,R10,3,A10,2,D10,0
      Variables:
 R2=1.0783853
 R3=1.3918175
 R4=1.39953869
 R5=1.07958621
 R6=1.2910345
 R7=1.39489102
 R8=1.45543839
 R9=1.07920656
 R10=1.07994967
 A3=127.22554291
 A4=126.12494107
 A5=126.29860269
 A6=114.9819536
 A7=107.55857676
 A8=109.30315615
 A9=129.66164486
 A10=127.91828065
 D4=179.95782851
 D5=-1.18444456
 D6=121.9460717
 D7=-177.96872139
 D8=59.37762663
 D9=-138.85944886
 D10=174.43426439
 Recover connectivity data from disk.

 GradGradGradGradGradGradGradGradGradGradGradGradGradGradGradGradGradGrad
 Berny optimization.
 Initialization pass.
                       ----------------------------
                       !    Initial Parameters    !
                       ! (Angstroms and Degrees)  !
 ----------------------                            ----------------------
 !      Name          Value   Derivative information (Atomic Units)     !
 ------------------------------------------------------------------------
 !       R2          1.0784   calculate D2E/DX2 analytically            !
 !       R3          1.3918   calculate D2E/DX2 analytically            !
 !       R4          1.3995   calculate D2E/DX2 analytically            !
 !       R5          1.0796   calculate D2E/DX2 analytically            !
 !       R6          1.291    calculate D2E/DX2 analytically            !
 !       R7          1.3949   calculate D2E/DX2 analytically            !
 !       R8          1.4554   calculate D2E/DX2 analytically            !
 !       R9          1.0792   calculate D2E/DX2 analytically            !
 !       R10         1.0799   calculate D2E/DX2 analytically            !
 !       A3        127.2255   calculate D2E/DX2 analytically            !
 !       A4        126.1249   calculate D2E/DX2 analytically            !
 !       A5        126.2986   calculate D2E/DX2 analytically            !
 !       A6        114.982    calculate D2E/DX2 analytically            !
 !       A7        107.5586   calculate D2E/DX2 analytically            !
 !       A8        109.3032   calculate D2E/DX2 analytically            !
 !       A9        129.6616   calculate D2E/DX2 analytically            !
 !       A10       127.9183   calculate D2E/DX2 analytically            !
 !       D4        179.9578   calculate D2E/DX2 analytically            !
 !       D5         -1.1844   calculate D2E/DX2 analytically            !
 !       D6        121.9461   calculate D2E/DX2 analytically            !
 !       D7       -177.9687   calculate D2E/DX2 analytically            !
 !       D8         59.3776   calculate D2E/DX2 analytically            !
 !       D9       -138.8594   calculate D2E/DX2 analytically            !
 !       D10       174.4343   calculate D2E/DX2 analytically            !
 ------------------------------------------------------------------------
 Trust Radius=1.00D-01 FncErr=1.00D-07 GrdErr=1.00D-06 EigMax=2.50D+02 EigMin=1.00D-04
 Number of steps in this run=     34 maximum allowed number of steps=    100.
 Search for a saddle point of order  1.
 GradGradGradGradGradGradGradGradGradGradGradGradGradGradGradGradGradGrad

 ---------------------------------------------------------------------------------------------------
                            Z-MATRIX (ANGSTROMS AND DEGREES)
   CD    Cent   Atom    N1       Length/X        N2       Alpha/Y        N3        Beta/Z          J
 ---------------------------------------------------------------------------------------------------
      1      1  H 
      2      2  C        1   1.078385(     1)
      3      3  C        2   1.391817(     2)      1  127.226(    10)
      4      4  C        2   1.399539(     3)      1  126.125(    11)      3  179.958(    18)      0
      5      5  H        3   1.079586(     4)      2  126.299(    12)      1   -1.184(    19)      0
      6      6  H        4   1.291035(     5)      2  114.982(    13)      1  121.946(    20)      0
      7      7  C        3   1.394891(     6)      2  107.559(    14)      5 -177.969(    21)      0
      8      8  N        4   1.455438(     7)      2  109.303(    15)      6   59.378(    22)      0
      9      9  H        4   1.079207(     8)      2  129.662(    16)      6 -138.859(    23)      0
     10     10  H        7   1.079950(     9)      3  127.918(    17)      2  174.434(    24)      0
 ---------------------------------------------------------------------------------------------------
                         Z-Matrix orientation:                         
 ---------------------------------------------------------------------
 Center     Atomic      Atomic             Coordinates (Angstroms)
 Number     Number       Type             X           Y           Z
 ---------------------------------------------------------------------
      1          1           0        0.000000    0.000000    0.000000
      2          6           0        0.000000    0.000000    1.078385
      3          6           0        1.108249    0.000000    1.920371
      4          6           0       -1.130454    0.000832    1.903481
      5          1           0        2.143394   -0.017986    1.614336
      6          1           0       -1.206549   -0.992121    2.725079
      7          6           0        0.638883   -0.019655    3.233775
      8          7           0       -0.709449    0.032254    3.296344
      9          1           0       -2.155259    0.243288    1.667525
     10          1           0        1.214765   -0.107847    4.143101
 ---------------------------------------------------------------------
                    Distance matrix (angstroms):
                    1          2          3          4          5
     1  H    0.000000
     2  C    1.078385   0.000000
     3  C    2.217215   1.391817   0.000000
     4  C    2.213857   1.399539   2.238767   0.000000
     5  H    2.683383   2.209458   1.079586   3.286646   0.000000
     6  H    3.141038   2.269728   2.643889   1.291035   3.661258
     7  C    3.296340   2.248169   1.394891   2.213742   2.210461
     8  N    3.371979   2.328884   2.279993   1.455438   3.312158
     9  H    2.735868   2.247536   3.282317   1.079207   4.306915
    10  H    4.318862   3.298449   2.227892   3.244651   2.695381
                    6          7          8          9         10
     6  H    0.000000
     7  C    2.147110   0.000000
     8  N    1.273890   1.350781   0.000000
     9  H    1.882739   3.213956   2.188140   0.000000
    10  H    2.942021   1.079950   2.106947   4.196289   0.000000
 Symmetry turned off by external request.
 Stoichiometry    C4H5N
 Framework group  C1[X(C4H5N)]
 Deg. of freedom    24
 Full point group                 C1      NOp   1
 Rotational constants (GHZ):           9.2006062           8.8491774           4.5986611
 Standard basis: def2TZVP (5D, 7F)
 The following finite field(s) will be applied:
 An electric field of              0.0007  0.0017  0.0047
   185 basis functions,   295 primitive gaussians,   210 cartesian basis functions
    18 alpha electrons       18 beta electrons
       nuclear repulsion energy       160.5772786215 Hartrees.
 NAtoms=   10 NActive=   10 NUniq=   10 SFac= 1.00D+00 NAtFMM=   60 NAOKFM=F Big=F
 Integral buffers will be    131072 words long.
 Raffenetti 2 integral format.
 Two-electron integral symmetry is turned off.
 One-electron integrals computed using PRISM.
   1 Symmetry operations used in ECPInt.
 ECPInt:  NShTT=    2850 NPrTT=    8640 LenC2=    2843 LenP2D=    7479.
 LDataN:  DoStor=T MaxTD1= 6 Len=  172
 NBasis=   185 RedAO= T EigKep=  5.72D-05  NBF=   185
 NBsUse=   185 1.00D-06 EigRej= -1.00D+00 NBFU=   185
 The nuclear repulsion energy is now       161.2942144198 hartrees.
 Initial guess from the checkpoint file:  "checkpoint.chk"
 B after Tr=     0.000000   -0.000000    0.000000
         Rot=    1.000000    0.000000    0.000000   -0.000000 Ang=   0.00 deg.
 Keep R1 ints in memory in canonical form, NReq=160464061.
 Requested convergence on RMS density matrix=1.00D-08 within 128 cycles.
 Requested convergence on MAX density matrix=1.00D-06.
 Requested convergence on             energy=1.00D-06.
 No special actions if energy rises.
 SCF Done:  E(RB3LYP) =  -210.179145277     A.U. after   10 cycles
            NFock= 10  Conv=0.34D-08     -V/T= 2.0052
 DoSCS=F DFT=T ScalE2(SS,OS)=  1.000000  1.000000
 Range of M.O.s used for correlation:     1   185
 NBasis=   185 NAE=    18 NBE=    18 NFC=     0 NFV=     0
 NROrb=    185 NOA=    18 NOB=    18 NVA=   167 NVB=   167

 **** Warning!!: The largest alpha MO coefficient is  0.24516691D+02

   1 Symmetry operations used in ECPInt.
 ECPInt:  NShTT=    2850 NPrTT=    8640 LenC2=    2843 LenP2D=    7479.
 LDataN:  DoStor=T MaxTD1= 7 Len=  274
 Symmetrizing basis deriv contribution to polar:
 IMax=3 JMax=2 DiffMx= 0.00D+00
 G2DrvN: will do    11 centers at a time, making    1 passes.
 Calling FoFCou, ICntrl=  3107 FMM=F I1Cent=   0 AccDes= 0.00D+00.
 End of G2Drv F.D. properties file   721 does not exist.
 End of G2Drv F.D. properties file   722 does not exist.
 End of G2Drv F.D. properties file   788 does not exist.
          IDoAtm=1111111111
          Differentiating once with respect to nuclear coordinates.
 Keep R1 ints in memory in canonical form, NReq=160431867.
          There are    33 degrees of freedom in the 1st order CPHF.  IDoFFX=6 NUNeed=     0.
     27 vectors produced by pass  0 Test12= 9.11D-15 3.03D-09 XBig12= 1.13D-01 1.39D-01.
 AX will form    27 AO Fock derivatives at one time.
     27 vectors produced by pass  1 Test12= 9.11D-15 3.03D-09 XBig12= 1.36D-02 3.84D-02.
     27 vectors produced by pass  2 Test12= 9.11D-15 3.03D-09 XBig12= 2.20D-04 3.71D-03.
     27 vectors produced by pass  3 Test12= 9.11D-15 3.03D-09 XBig12= 7.34D-07 1.21D-04.
     27 vectors produced by pass  4 Test12= 9.11D-15 3.03D-09 XBig12= 1.36D-09 5.66D-06.
     26 vectors produced by pass  5 Test12= 9.11D-15 3.03D-09 XBig12= 2.92D-12 2.21D-07.
      6 vectors produced by pass  6 Test12= 9.11D-15 3.03D-09 XBig12= 5.63D-15 1.15D-08.
 InvSVY:  IOpt=1 It=  1 EMax= 2.00D-15
 Solved reduced A of dimension   167 with    27 vectors.
 End of Minotr F.D. properties file   721 does not exist.
 End of Minotr F.D. properties file   722 does not exist.
 End of Minotr F.D. properties file   788 does not exist.
   1 Symmetry operations used in ECPInt.
 ECPInt:  NShTT=    2850 NPrTT=    8640 LenC2=    2843 LenP2D=    7479.
 LDataN:  DoStor=T MaxTD1= 8 Len=  415
 Calling FoFJK, ICntrl=    100147 FMM=F ISym2X=0 I1Cent= 0 IOpClX= 0 NMat=1 NMatS=1 NMatT=0.
 -------------------------------------------------------------------
 Center     Atomic                   Forces (Hartrees/Bohr)
 Number     Number              X              Y              Z
 -------------------------------------------------------------------
      1        1          -0.000221468   -0.000144429    0.000036577
      2        6           0.000125767    0.000111709    0.000027818
      3        6           0.000069846   -0.000039216    0.000109394
      4        6           0.000269192    0.000231383   -0.000148239
      5        1          -0.000073441   -0.000117746   -0.000207247
      6        1          -0.000084251   -0.000143923   -0.000492179
      7        6          -0.000022411    0.000359823   -0.000420984
      8        7          -0.000220766    0.000211490    0.001159985
      9        1           0.000006133   -0.000229176   -0.000180079
     10        1           0.000151399   -0.000239916    0.000114955
 -------------------------------------------------------------------
 Cartesian Forces:  Max     0.001159985 RMS     0.000290049
 -----------------------------------------------------------------------------------------------
                       Internal Coordinate Forces (Hartree/Bohr or radian)
  Cent   Atom   N1       Length/X         N2         Alpha/Y        N3         Beta/Z          J
 -----------------------------------------------------------------------------------------------
      1  H 
      2  C        1  -0.000037(     1)
      3  C        2  -0.000144(     2)      1  -0.001677(    10)
      4  C        2   0.000224(     3)      1  -0.001378(    11)      3   0.000336(    18)     0
      5  H        3  -0.000010(     4)      2  -0.000451(    12)      1  -0.000308(    19)     0
      6  H        4  -0.000198(     5)      2  -0.000373(    13)      1  -0.000099(    20)     0
      7  C        3  -0.000333(     6)      2   0.000179(    14)      5  -0.000119(    21)     0
      8  N        4   0.001051(     7)      2   0.001501(    15)      6   0.000500(    22)     0
      9  H        4  -0.000018(     8)      2  -0.000264(    16)      6   0.000409(    23)     0
     10  H        7   0.000197(     9)      3  -0.000156(    17)      2  -0.000356(    24)     0
 -----------------------------------------------------------------------------------------------
 Internal  Forces:  Max     0.001677004 RMS     0.000631597

 GradGradGradGradGradGradGradGradGradGradGradGradGradGradGradGradGradGrad
 Berny optimization.
 Search for a saddle point.
 Step number   1 out of a maximum of   34
 All quantities printed in internal units (Hartrees-Bohrs-Radians)
 Swapping is turned off.
 Second derivative matrix not updated -- analytic derivatives used.
 ITU=  0
     Eigenvalues ---   -0.23948   0.01567   0.03640   0.04207   0.05711
     Eigenvalues ---    0.09936   0.12315   0.17546   0.20652   0.21991
     Eigenvalues ---    0.23314   0.28862   0.33830   0.36174   0.36329
     Eigenvalues ---    0.36793   0.36826   0.41105   0.47475   0.49647
     Eigenvalues ---    0.64769   2.12423   2.88156  21.88059
 Eigenvectors required to have negative eigenvalues:
                          D8        R6        D6        R8        R4
   1                    0.65984  -0.52760  -0.33484   0.18571   0.15297
                          D5        A8        A6        R3        D4
   1                   -0.13786  -0.12751  -0.12415  -0.12090  -0.12020
 RFO step:  Lambda0=1.485939057D-06 Lambda=-1.44472567D-05.
 Linear search not attempted -- option 19 set.
 Variable       Old X    -DE/DX   Delta X   Delta X   Delta X     New X
                                 (Linear)    (Quad)   (Total)
    R2        2.03785  -0.00004   0.00000  -0.00009  -0.00009   2.03776
    R3        2.63015  -0.00014   0.00000   0.00043   0.00043   2.63058
    R4        2.64474   0.00022   0.00000  -0.00164  -0.00164   2.64311
    R5        2.04012  -0.00001   0.00000  -0.00004  -0.00004   2.04008
    R6        2.43970  -0.00020   0.00000   0.00172   0.00172   2.44143
    R7        2.63596  -0.00033   0.00000  -0.00093  -0.00093   2.63503
    R8        2.75038   0.00105   0.00000   0.00241   0.00241   2.75279
    R9        2.03940  -0.00002   0.00000  -0.00010  -0.00010   2.03931
   R10        2.04081   0.00020   0.00000   0.00056   0.00056   2.04137
    A3        2.22050  -0.00168   0.00000  -0.00154  -0.00154   2.21896
    A4        2.20130  -0.00138   0.00000   0.00136   0.00136   2.20266
    A5        2.20433  -0.00045   0.00000  -0.00211  -0.00211   2.20222
    A6        2.00681  -0.00037   0.00000  -0.00331  -0.00331   2.00351
    A7        1.87725   0.00018   0.00000   0.00003   0.00003   1.87728
    A8        1.90770   0.00150   0.00000   0.00093   0.00093   1.90863
    A9        2.26302  -0.00026   0.00000  -0.00007  -0.00007   2.26296
   A10        2.23260  -0.00016   0.00000  -0.00103  -0.00103   2.23156
    D4        3.14086   0.00034   0.00000   0.00368   0.00368   3.14454
    D5       -0.02067  -0.00031   0.00000  -0.00027  -0.00027  -0.02094
    D6        2.12836  -0.00010   0.00000  -0.00292  -0.00292   2.12544
    D7       -3.10614  -0.00012   0.00000   0.00403   0.00403  -3.10211
    D8        1.03634   0.00050   0.00000  -0.00212  -0.00212   1.03422
    D9       -2.42355   0.00041   0.00000   0.00966   0.00966  -2.41390
   D10        3.04445  -0.00036   0.00000  -0.00639  -0.00639   3.03806
         Item               Value     Threshold  Converged?
 Maximum Force            0.001677     0.000450     NO 
 RMS     Force            0.000632     0.000300     NO 
 Maximum Displacement     0.009657     0.001800     NO 
 RMS     Displacement     0.002967     0.001200     NO 
 Predicted change in Energy=-6.480654D-06
 GradGradGradGradGradGradGradGradGradGradGradGradGradGradGradGradGradGrad

 ---------------------------------------------------------------------------------------------------
                            Z-MATRIX (ANGSTROMS AND DEGREES)
   CD    Cent   Atom    N1       Length/X        N2       Alpha/Y        N3        Beta/Z          J
 ---------------------------------------------------------------------------------------------------
      1      1  H 
      2      2  C        1   1.078337(     1)
      3      3  C        2   1.392043(     2)      1  127.137(    10)
      4      4  C        2   1.398673(     3)      1  126.203(    11)      3  180.169(    18)      0
      5      5  H        3   1.079565(     4)      2  126.178(    12)      1   -1.200(    19)      0
      6      6  H        4   1.291947(     5)      2  114.793(    13)      1  121.779(    20)      0
      7      7  C        3   1.394398(     6)      2  107.560(    14)      5 -177.738(    21)      0
      8      8  N        4   1.456711(     7)      2  109.357(    15)      6   59.256(    22)      0
      9      9  H        4   1.079156(     8)      2  129.658(    16)      6 -138.306(    23)      0
     10     10  H        7   1.080246(     9)      3  127.859(    17)      2  174.068(    24)      0
 ---------------------------------------------------------------------------------------------------
                         Z-Matrix orientation:                         
 ---------------------------------------------------------------------
 Center     Atomic      Atomic             Coordinates (Angstroms)
 Number     Number       Type             X           Y           Z
 ---------------------------------------------------------------------
      1          1           0        0.000000    0.000000    0.000000
      2          6           0        0.000000    0.000000    1.078337
      3          6           0        1.109726    0.000000    1.918748
      4          6           0       -1.128626   -0.003322    1.904460
      5          1           0        2.143723   -0.018246    1.608944
      6          1           0       -1.198018   -1.000574    2.722874
      7          6           0        0.642642   -0.024654    3.232358
      8          7           0       -0.706668    0.022749    3.298476
      9          1           0       -2.155506    0.229998    1.668544
     10          1           0        1.220798   -0.119755    4.139895
 ---------------------------------------------------------------------
                    Distance matrix (angstroms):
                    1          2          3          4          5
     1  H    0.000000
     2  C    1.078337   0.000000
     3  C    2.216548   1.392043   0.000000
     4  C    2.213769   1.398673   2.238401   0.000000
     5  H    2.680407   2.208489   1.079565   3.285699   0.000000
     6  H    3.138541   2.267355   2.640729   1.291947   3.656917
     7  C    3.295715   2.247977   1.394398   2.213856   2.211053
     8  N    3.373402   2.330002   2.281108   1.456711   3.313748
     9  H    2.735533   2.246653   3.282871   1.079156   4.306802
    10  H    4.317803   3.298155   2.227145   3.245076   2.695887
                    6          7          8          9         10
     6  H    0.000000
     7  C    2.144767   0.000000
     8  N    1.272765   1.351761   0.000000
     9  H    1.882207   3.215586   2.190607   0.000000
    10  H    2.938445   1.080246   2.107942   4.198730   0.000000
 Symmetry turned off by external request.
 Stoichiometry    C4H5N
 Framework group  C1[X(C4H5N)]
 Deg. of freedom    24
 Full point group                 C1      NOp   1
 Rotational constants (GHZ):           9.2006303           8.8450596           4.5973718
 Standard basis: def2TZVP (5D, 7F)
 The following finite field(s) will be applied:
 An electric field of              0.0007  0.0017  0.0047
   185 basis functions,   295 primitive gaussians,   210 cartesian basis functions
    18 alpha electrons       18 beta electrons
       nuclear repulsion energy       160.5587908121 Hartrees.
 NAtoms=   10 NActive=   10 NUniq=   10 SFac= 1.00D+00 NAtFMM=   60 NAOKFM=F Big=F
 Integral buffers will be    131072 words long.
 Raffenetti 2 integral format.
 Two-electron integral symmetry is turned off.
 One-electron integrals computed using PRISM.
   1 Symmetry operations used in ECPInt.
 ECPInt:  NShTT=    2850 NPrTT=    8640 LenC2=    2843 LenP2D=    7479.
 LDataN:  DoStor=T MaxTD1= 6 Len=  172
 NBasis=   185 RedAO= T EigKep=  5.72D-05  NBF=   185
 NBsUse=   185 1.00D-06 EigRej= -1.00D+00 NBFU=   185
 The nuclear repulsion energy is now       161.2752526115 hartrees.
 Initial guess from the checkpoint file:  "checkpoint.chk"
 B after Tr=    -0.002438    0.005963   -0.000335
         Rot=    0.999998   -0.001621   -0.000736   -0.001201 Ang=  -0.25 deg.
 Keep R1 ints in memory in canonical form, NReq=160464061.
 Requested convergence on RMS density matrix=1.00D-08 within 128 cycles.
 Requested convergence on MAX density matrix=1.00D-06.
 Requested convergence on             energy=1.00D-06.
 No special actions if energy rises.
 SCF Done:  E(RB3LYP) =  -210.179151766     A.U. after    8 cycles
            NFock=  8  Conv=0.92D-08     -V/T= 2.0052
   1 Symmetry operations used in ECPInt.
 ECPInt:  NShTT=    2850 NPrTT=    8640 LenC2=    2843 LenP2D=    7479.
 LDataN:  DoStor=T MaxTD1= 7 Len=  274
 Calling FoFJK, ICntrl=      2127 FMM=F ISym2X=0 I1Cent= 0 IOpClX= 0 NMat=1 NMatS=1 NMatT=0.
 -------------------------------------------------------------------
 Center     Atomic                   Forces (Hartrees/Bohr)
 Number     Number              X              Y              Z
 -------------------------------------------------------------------
      1        1          -0.000367727   -0.000027338    0.000000045
      2        6           0.000371023    0.000181400    0.000000084
      3        6           0.000000992   -0.000151483   -0.000002217
      4        6          -0.000008529   -0.000001110   -0.000001272
      5        1           0.000000170   -0.000000406   -0.000000201
      6        1          -0.000002470    0.000001172    0.000000427
      7        6           0.000006089    0.000001446    0.000003999
      8        7          -0.000000282   -0.000003402    0.000001237
      9        1          -0.000000550   -0.000000757   -0.000002356
     10        1           0.000001284    0.000000477    0.000000254
 -------------------------------------------------------------------
 Cartesian Forces:  Max     0.000371023 RMS     0.000104825
 -----------------------------------------------------------------------------------------------
                       Internal Coordinate Forces (Hartree/Bohr or radian)
  Cent   Atom   N1       Length/X         N2         Alpha/Y        N3         Beta/Z          J
 -----------------------------------------------------------------------------------------------
      1  H 
      2  C        1  -0.000000(     1)
      3  C        2   0.000008(     2)      1  -0.000034(    10)
      4  C        2   0.000008(     3)      1  -0.000033(    11)      3   0.000003(    18)     0
      5  H        3   0.000000(     4)      2  -0.000000(    12)      1  -0.000006(    19)     0
      6  H        4  -0.000001(     5)      2   0.000007(    13)      1  -0.000007(    20)     0
      7  C        3   0.000002(     6)      2   0.000024(    14)      5  -0.000005(    21)     0
      8  N        4   0.000001(     7)      2   0.000002(    15)      6  -0.000009(    22)     0
      9  H        4   0.000001(     8)      2  -0.000004(    16)      6   0.000002(    23)     0
     10  H        7   0.000001(     9)      3  -0.000002(    17)      2   0.000001(    24)     0
 -----------------------------------------------------------------------------------------------
 Internal  Forces:  Max     0.000033980 RMS     0.000011546

 GradGradGradGradGradGradGradGradGradGradGradGradGradGradGradGradGradGrad
 Berny optimization.
 Search for a saddle point.
 Step number   2 out of a maximum of   34
 All quantities printed in internal units (Hartrees-Bohrs-Radians)
 Swapping is turned off.
 Update second derivatives using D2CorN and points    1    2
 ITU=  0  0
     Eigenvalues ---   -0.23950   0.01565   0.03635   0.04209   0.05713
     Eigenvalues ---    0.09935   0.12315   0.17546   0.20651   0.21989
     Eigenvalues ---    0.23314   0.28854   0.33830   0.36174   0.36329
     Eigenvalues ---    0.36793   0.36826   0.41106   0.47475   0.49648
     Eigenvalues ---    0.64769   2.12426   2.88157  21.88056
 Eigenvectors required to have negative eigenvalues:
                          D8        R6        D6        R8        R4
   1                    0.65988  -0.52760  -0.33476   0.18565   0.15295
                          D5        A8        A6        R3        D4
   1                   -0.13786  -0.12746  -0.12416  -0.12090  -0.12030
 RFO step:  Lambda0=8.677628061D-12 Lambda= 0.00000000D+00.
 Linear search not attempted -- option 19 set.
 Variable       Old X    -DE/DX   Delta X   Delta X   Delta X     New X
                                 (Linear)    (Quad)   (Total)
    R2        2.03776  -0.00000   0.00000   0.00000   0.00000   2.03776
    R3        2.63058   0.00001   0.00000  -0.00000  -0.00000   2.63058
    R4        2.64311   0.00001   0.00000   0.00001   0.00001   2.64312
    R5        2.04008   0.00000   0.00000   0.00000   0.00000   2.04008
    R6        2.44143  -0.00000   0.00000  -0.00000  -0.00000   2.44142
    R7        2.63503   0.00000   0.00000   0.00001   0.00001   2.63504
    R8        2.75279   0.00000   0.00000   0.00002   0.00002   2.75280
    R9        2.03931   0.00000   0.00000   0.00000   0.00000   2.03931
   R10        2.04137   0.00000   0.00000   0.00000   0.00000   2.04137
    A3        2.21896  -0.00003   0.00000  -0.00001  -0.00001   2.21895
    A4        2.20266  -0.00003   0.00000   0.00000   0.00000   2.20266
    A5        2.20222  -0.00000   0.00000  -0.00000  -0.00000   2.20221
    A6        2.00351   0.00001   0.00000   0.00002   0.00002   2.00352
    A7        1.87728   0.00002   0.00000   0.00000   0.00000   1.87728
    A8        1.90863   0.00000   0.00000  -0.00001  -0.00001   1.90862
    A9        2.26296  -0.00000   0.00000  -0.00001  -0.00001   2.26295
   A10        2.23156  -0.00000   0.00000  -0.00000  -0.00000   2.23156
    D4        3.14454   0.00000   0.00000   0.00012   0.00012   3.14466
    D5       -0.02094  -0.00001   0.00000   0.00008   0.00008  -0.02086
    D6        2.12544  -0.00001   0.00000  -0.00008  -0.00008   2.12536
    D7       -3.10211  -0.00001   0.00000  -0.00000  -0.00000  -3.10211
    D8        1.03422  -0.00001   0.00000  -0.00000  -0.00000   1.03421
    D9       -2.41390   0.00000   0.00000   0.00000   0.00000  -2.41390
   D10        3.03806   0.00000   0.00000   0.00002   0.00002   3.03808
         Item               Value     Threshold  Converged?
 Maximum Force            0.000034     0.000450     YES
 RMS     Force            0.000012     0.000300     YES
 Maximum Displacement     0.000121     0.001800     YES
 RMS     Displacement     0.000035     0.001200     YES
 Predicted change in Energy=-5.713209D-10
 Optimization completed.
    -- Stationary point found.
                       ----------------------------
                       !   Optimized Parameters   !
                       ! (Angstroms and Degrees)  !
 ----------------------                            ----------------------
 !      Name          Value   Derivative information (Atomic Units)     !
 ------------------------------------------------------------------------
 !       R2          1.0783   -DE/DX =    0.0                           !
 !       R3          1.392    -DE/DX =    0.0                           !
 !       R4          1.3987   -DE/DX =    0.0                           !
 !       R5          1.0796   -DE/DX =    0.0                           !
 !       R6          1.2919   -DE/DX =    0.0                           !
 !       R7          1.3944   -DE/DX =    0.0                           !
 !       R8          1.4567   -DE/DX =    0.0                           !
 !       R9          1.0792   -DE/DX =    0.0                           !
 !       R10         1.0802   -DE/DX =    0.0                           !
 !       A3        127.1371   -DE/DX =    0.0                           !
 !       A4        126.203    -DE/DX =    0.0                           !
 !       A5        126.1777   -DE/DX =    0.0                           !
 !       A6        114.7925   -DE/DX =    0.0                           !
 !       A7        107.5603   -DE/DX =    0.0                           !
 !       A8        109.3565   -DE/DX =    0.0                           !
 !       A9        129.6579   -DE/DX =    0.0                           !
 !       A10       127.8592   -DE/DX =    0.0                           !
 !       D4        180.1687   -DE/DX =    0.0                           !
 !       D5         -1.1998   -DE/DX =    0.0                           !
 !       D6        121.7788   -DE/DX =    0.0                           !
 !       D7       -177.7376   -DE/DX =    0.0                           !
 !       D8         59.2563   -DE/DX =    0.0                           !
 !       D9       -138.3062   -DE/DX =    0.0                           !
 !       D10       174.0682   -DE/DX =    0.0                           !
 ------------------------------------------------------------------------
 GradGradGradGradGradGradGradGradGradGradGradGradGradGradGradGradGradGrad

 ---------------------------------------------------------------------------------------------------
                            Z-MATRIX (ANGSTROMS AND DEGREES)
   CD    Cent   Atom    N1       Length/X        N2       Alpha/Y        N3        Beta/Z          J
 ---------------------------------------------------------------------------------------------------
      1      1  H 
      2      2  C        1   1.078337(     1)
      3      3  C        2   1.392043(     2)      1  127.137(    10)
      4      4  C        2   1.398673(     3)      1  126.203(    11)      3  180.169(    18)      0
      5      5  H        3   1.079565(     4)      2  126.178(    12)      1   -1.200(    19)      0
      6      6  H        4   1.291947(     5)      2  114.793(    13)      1  121.779(    20)      0
      7      7  C        3   1.394398(     6)      2  107.560(    14)      5 -177.738(    21)      0
      8      8  N        4   1.456711(     7)      2  109.357(    15)      6   59.256(    22)      0
      9      9  H        4   1.079156(     8)      2  129.658(    16)      6 -138.306(    23)      0
     10     10  H        7   1.080246(     9)      3  127.859(    17)      2  174.068(    24)      0
 ---------------------------------------------------------------------------------------------------
                         Z-Matrix orientation:                         
 ---------------------------------------------------------------------
 Center     Atomic      Atomic             Coordinates (Angstroms)
 Number     Number       Type             X           Y           Z
 ---------------------------------------------------------------------
      1          1           0        0.000000    0.000000    0.000000
      2          6           0        0.000000    0.000000    1.078337
      3          6           0        1.109726    0.000000    1.918748
      4          6           0       -1.128626   -0.003322    1.904460
      5          1           0        2.143723   -0.018246    1.608944
      6          1           0       -1.198018   -1.000574    2.722874
      7          6           0        0.642642   -0.024654    3.232358
      8          7           0       -0.706668    0.022749    3.298476
      9          1           0       -2.155506    0.229998    1.668544
     10          1           0        1.220798   -0.119755    4.139895
 ---------------------------------------------------------------------
                    Distance matrix (angstroms):
                    1          2          3          4          5
     1  H    0.000000
     2  C    1.078337   0.000000
     3  C    2.216548   1.392043   0.000000
     4  C    2.213769   1.398673   2.238401   0.000000
     5  H    2.680407   2.208489   1.079565   3.285699   0.000000
     6  H    3.138541   2.267355   2.640729   1.291947   3.656917
     7  C    3.295715   2.247977   1.394398   2.213856   2.211053
     8  N    3.373402   2.330002   2.281108   1.456711   3.313748
     9  H    2.735533   2.246653   3.282871   1.079156   4.306802
    10  H    4.317803   3.298155   2.227145   3.245076   2.695887
                    6          7          8          9         10
     6  H    0.000000
     7  C    2.144767   0.000000
     8  N    1.272765   1.351761   0.000000
     9  H    1.882207   3.215586   2.190607   0.000000
    10  H    2.938445   1.080246   2.107942   4.198730   0.000000
 Symmetry turned off by external request.
 Stoichiometry    C4H5N
 Framework group  C1[X(C4H5N)]
 Deg. of freedom    24
 Full point group                 C1      NOp   1
 Rotational constants (GHZ):           9.2006303           8.8450596           4.5973718
 1\1\GINC-BHC0068\FTS\RB3LYP\def2TZVP\C4H5N1\DHANAWAY\10-Jun-2022\1\\# 
 Opt=(TS, CalcFC, noeigentest, Z-matrix, MaxStep=10) geom=allcheckpoint
  guess=read Field=read NoSymm B3LYP/Def2TZVP freq=noraman pop=none\\ts
 _zmat_initalOpt\\0,1\H\C,1,R2\C,2,R3,1,A3\C,2,R4,1,A4,3,D4,0\H,3,R5,2,
 A5,1,D5,0\H,4,R6,2,A6,1,D6,0\C,3,R7,2,A7,5,D7,0\N,4,R8,2,A8,6,D8,0\H,4
 ,R9,2,A9,6,D9,0\H,7,R10,3,A10,2,D10,0\\R2=1.07833741\R3=1.39204252\R4=
 1.39867304\R5=1.0795649\R6=1.29194729\R7=1.39439831\R8=1.45671143\R9=1
 .07915552\R10=1.08024617\A3=127.13713337\A4=126.20295112\A5=126.177722
 98\A6=114.79253985\A7=107.56028581\A8=109.35653674\A9=129.65785281\A10
 =127.85920197\D4=180.1686582\D5=-1.19977611\D6=121.77883258\D7=-177.73
 76247\D8=59.25631838\D9=-138.30617029\D10=174.0681731\\Version=ES64L-G
 16RevA.03\HF=-210.1791518\RMSD=9.217e-09\RMSF=1.048e-04\Dipole=0.05648
 07,-0.3278058,-0.7801769\PG=C01 [X(C4H5N1)]\\@


 THE SECRET OF SUCCESS IN LIFE IS TO EAT WHAT YOU LIKE, AND LET THE FOOD
 FIGHT IT OUT INSIDE YOU. -- FROM A FORTUNE COOKIE
 Job cpu time:       0 days  0 hours 20 minutes  2.0 seconds.
 Elapsed time:       0 days  0 hours  1 minutes 45.5 seconds.
 File lengths (MBytes):  RWF=     34 Int=      0 D2E=      0 Chk=     32 Scr=      1
 Normal termination of Gaussian 16 at Fri Jun 10 22:58:05 2022.
 Link1:  Proceeding to internal job step number  2.
 --------------------------------------------------------------------
 #N Geom=AllCheck Guess=TCheck SCRF=Check GenChk RB3LYP/def2TZVP Freq
 --------------------------------------------------------------------
 1/5=1,8=10,10=4,11=1,29=7,30=1,38=1,40=1/1,3;
 2/12=2,15=1,40=1/2;
 3/5=44,7=101,11=2,14=-4,25=1,30=1,70=2,71=2,74=-5,116=1,140=1/1,2,3;
 4/5=101/1;
 5/5=2,38=6,98=1/2;
 8/6=4,10=90,11=11/1;
 11/6=1,8=1,9=11,15=111,16=1,31=1/1,2,10;
 10/6=1,31=1/2;
 7/8=1,10=1,25=1,30=1/1,2,3,16;
 1/5=1,8=10,10=4,11=1,30=1/3;
 99//99;
 Structure from the checkpoint file:  "checkpoint.chk"
 -----------------
 ts_zmat_initalOpt
 -----------------
 Charge =  0 Multiplicity = 1
 Z-Matrix found in chk file.
 H
 C,1,R2
 C,2,R3,1,A3
 C,2,R4,1,A4,3,D4,0
 H,3,R5,2,A5,1,D5,0
 H,4,R6,2,A6,1,D6,0
 C,3,R7,2,A7,5,D7,0
 N,4,R8,2,A8,6,D8,0
 H,4,R9,2,A9,6,D9,0
 H,7,R10,3,A10,2,D10,0
      Variables:
 R2=1.07833741
 R3=1.39204252
 R4=1.39867304
 R5=1.0795649
 R6=1.29194729
 R7=1.39439831
 R8=1.45671143
 R9=1.07915552
 R10=1.08024617
 A3=127.13713337
 A4=126.20295112
 A5=126.17772298
 A6=114.79253985
 A7=107.56028581
 A8=109.35653674
 A9=129.65785281
 A10=127.85920197
 D4=180.1686582
 D5=-1.19977611
 D6=121.77883258
 D7=-177.7376247
 D8=59.25631838
 D9=-138.30617029
 D10=174.0681731
 Recover connectivity data from disk.

 GradGradGradGradGradGradGradGradGradGradGradGradGradGradGradGradGradGrad
 Berny optimization.
 Initialization pass.
                       ----------------------------
                       !    Initial Parameters    !
                       ! (Angstroms and Degrees)  !
 ----------------------                            ----------------------
 !      Name          Value   Derivative information (Atomic Units)     !
 ------------------------------------------------------------------------
 !       R2          1.0783   calculate D2E/DX2 analytically            !
 !       R3          1.392    calculate D2E/DX2 analytically            !
 !       R4          1.3987   calculate D2E/DX2 analytically            !
 !       R5          1.0796   calculate D2E/DX2 analytically            !
 !       R6          1.2919   calculate D2E/DX2 analytically            !
 !       R7          1.3944   calculate D2E/DX2 analytically            !
 !       R8          1.4567   calculate D2E/DX2 analytically            !
 !       R9          1.0792   calculate D2E/DX2 analytically            !
 !       R10         1.0802   calculate D2E/DX2 analytically            !
 !       A3        127.1371   calculate D2E/DX2 analytically            !
 !       A4        126.203    calculate D2E/DX2 analytically            !
 !       A5        126.1777   calculate D2E/DX2 analytically            !
 !       A6        114.7925   calculate D2E/DX2 analytically            !
 !       A7        107.5603   calculate D2E/DX2 analytically            !
 !       A8        109.3565   calculate D2E/DX2 analytically            !
 !       A9        129.6579   calculate D2E/DX2 analytically            !
 !       A10       127.8592   calculate D2E/DX2 analytically            !
 !       D4        180.1687   calculate D2E/DX2 analytically            !
 !       D5         -1.1998   calculate D2E/DX2 analytically            !
 !       D6        121.7788   calculate D2E/DX2 analytically            !
 !       D7       -177.7376   calculate D2E/DX2 analytically            !
 !       D8         59.2563   calculate D2E/DX2 analytically            !
 !       D9       -138.3062   calculate D2E/DX2 analytically            !
 !       D10       174.0682   calculate D2E/DX2 analytically            !
 ------------------------------------------------------------------------
 Trust Radius=1.00D-01 FncErr=1.00D-07 GrdErr=1.00D-07 EigMax=2.50D+02 EigMin=1.00D-04
 Number of steps in this run=      2 maximum allowed number of steps=      2.
 Search for a saddle point of order  1.
 GradGradGradGradGradGradGradGradGradGradGradGradGradGradGradGradGradGrad

                          Input orientation:                          
 ---------------------------------------------------------------------
 Center     Atomic      Atomic             Coordinates (Angstroms)
 Number     Number       Type             X           Y           Z
 ---------------------------------------------------------------------
      1          1           0        0.000000    0.000000    0.000000
      2          6           0        0.000000    0.000000    1.078337
      3          6           0        1.109726    0.000000    1.918748
      4          6           0       -1.128626   -0.003322    1.904460
      5          1           0        2.143723   -0.018246    1.608944
      6          1           0       -1.198018   -1.000574    2.722874
      7          6           0        0.642642   -0.024654    3.232358
      8          7           0       -0.706668    0.022749    3.298476
      9          1           0       -2.155506    0.229998    1.668544
     10          1           0        1.220798   -0.119755    4.139895
 ---------------------------------------------------------------------
                    Distance matrix (angstroms):
                    1          2          3          4          5
     1  H    0.000000
     2  C    1.078337   0.000000
     3  C    2.216548   1.392043   0.000000
     4  C    2.213769   1.398673   2.238401   0.000000
     5  H    2.680407   2.208489   1.079565   3.285699   0.000000
     6  H    3.138541   2.267355   2.640729   1.291947   3.656917
     7  C    3.295715   2.247977   1.394398   2.213856   2.211053
     8  N    3.373402   2.330002   2.281108   1.456711   3.313748
     9  H    2.735533   2.246653   3.282871   1.079156   4.306802
    10  H    4.317803   3.298155   2.227145   3.245076   2.695887
                    6          7          8          9         10
     6  H    0.000000
     7  C    2.144767   0.000000
     8  N    1.272765   1.351761   0.000000
     9  H    1.882207   3.215586   2.190607   0.000000
    10  H    2.938445   1.080246   2.107942   4.198730   0.000000
 Symmetry turned off by external request.
 Stoichiometry    C4H5N
 Framework group  C1[X(C4H5N)]
 Deg. of freedom    24
 Full point group                 C1      NOp   1
 Rotational constants (GHZ):           9.2006303           8.8450596           4.5973718
 Standard basis: def2TZVP (5D, 7F)
 The following finite field(s) will be applied:
 An electric field of              0.0007  0.0017  0.0047
   185 basis functions,   295 primitive gaussians,   210 cartesian basis functions
    18 alpha electrons       18 beta electrons
       nuclear repulsion energy       160.5587908121 Hartrees.
 NAtoms=   10 NActive=   10 NUniq=   10 SFac= 1.00D+00 NAtFMM=   60 NAOKFM=F Big=F
 Integral buffers will be    131072 words long.
 Raffenetti 2 integral format.
 Two-electron integral symmetry is turned off.
 One-electron integrals computed using PRISM.
   1 Symmetry operations used in ECPInt.
 ECPInt:  NShTT=    2850 NPrTT=    8640 LenC2=    2843 LenP2D=    7479.
 LDataN:  DoStor=T MaxTD1= 6 Len=  172
 NBasis=   185 RedAO= T EigKep=  5.72D-05  NBF=   185
 NBsUse=   185 1.00D-06 EigRej= -1.00D+00 NBFU=   185
 The nuclear repulsion energy is now       161.2752526115 hartrees.
 Initial guess from the checkpoint file:  "checkpoint.chk"
 B after Tr=     0.000000    0.000000    0.000000
         Rot=    1.000000    0.000000    0.000000    0.000000 Ang=   0.00 deg.
 Keep R1 ints in memory in canonical form, NReq=160464061.
 Requested convergence on RMS density matrix=1.00D-08 within 128 cycles.
 Requested convergence on MAX density matrix=1.00D-06.
 Requested convergence on             energy=1.00D-06.
 No special actions if energy rises.
 SCF Done:  E(RB3LYP) =  -210.179151766     A.U. after    1 cycles
            NFock=  1  Conv=0.79D-08     -V/T= 2.0052
 DoSCS=F DFT=T ScalE2(SS,OS)=  1.000000  1.000000
 Range of M.O.s used for correlation:     1   185
 NBasis=   185 NAE=    18 NBE=    18 NFC=     0 NFV=     0
 NROrb=    185 NOA=    18 NOB=    18 NVA=   167 NVB=   167

 **** Warning!!: The largest alpha MO coefficient is  0.24547116D+02

   1 Symmetry operations used in ECPInt.
 ECPInt:  NShTT=    2850 NPrTT=    8640 LenC2=    2843 LenP2D=    7479.
 LDataN:  DoStor=T MaxTD1= 7 Len=  274
 Symmetrizing basis deriv contribution to polar:
 IMax=3 JMax=2 DiffMx= 0.00D+00
 G2DrvN: will do    11 centers at a time, making    1 passes.
 Calling FoFCou, ICntrl=  3107 FMM=F I1Cent=   0 AccDes= 0.00D+00.
 End of G2Drv F.D. properties file   721 does not exist.
 End of G2Drv F.D. properties file   722 does not exist.
 End of G2Drv F.D. properties file   788 does not exist.
          IDoAtm=1111111111
          Differentiating once with respect to electric field.
                with respect to dipole field.
          Differentiating once with respect to nuclear coordinates.
 Keep R1 ints in memory in canonical form, NReq=160431867.
          There are    33 degrees of freedom in the 1st order CPHF.  IDoFFX=6 NUNeed=     3.
     30 vectors produced by pass  0 Test12= 9.11D-15 3.03D-09 XBig12= 6.55D+01 4.50D+00.
 AX will form    30 AO Fock derivatives at one time.
     30 vectors produced by pass  1 Test12= 9.11D-15 3.03D-09 XBig12= 1.45D+01 5.80D-01.
     30 vectors produced by pass  2 Test12= 9.11D-15 3.03D-09 XBig12= 1.37D-01 6.92D-02.
     30 vectors produced by pass  3 Test12= 9.11D-15 3.03D-09 XBig12= 4.66D-04 3.61D-03.
     30 vectors produced by pass  4 Test12= 9.11D-15 3.03D-09 XBig12= 8.34D-07 1.14D-04.
     27 vectors produced by pass  5 Test12= 9.11D-15 3.03D-09 XBig12= 1.58D-09 5.17D-06.
      6 vectors produced by pass  6 Test12= 9.11D-15 3.03D-09 XBig12= 1.85D-12 1.88D-07.
      2 vectors produced by pass  7 Test12= 9.11D-15 3.03D-09 XBig12= 2.04D-15 5.81D-09.
 InvSVY:  IOpt=1 It=  1 EMax= 7.99D-15
 Solved reduced A of dimension   185 with    33 vectors.
 Isotropic polarizability for W=    0.000000       50.47 Bohr**3.
 End of Minotr F.D. properties file   721 does not exist.
 End of Minotr F.D. properties file   722 does not exist.
 End of Minotr F.D. properties file   788 does not exist.
   1 Symmetry operations used in ECPInt.
 ECPInt:  NShTT=    2850 NPrTT=    8640 LenC2=    2843 LenP2D=    7479.
 LDataN:  DoStor=T MaxTD1= 8 Len=  415
 Calling FoFJK, ICntrl=    100127 FMM=F ISym2X=0 I1Cent= 0 IOpClX= 0 NMat=1 NMatS=1 NMatT=0.
 Full mass-weighted force constant matrix:
 Low frequencies ----1490.3640   -7.2159   -0.0008   -0.0008   -0.0007   12.4139
 Low frequencies ---   19.6872  589.7864  639.9639
 ******    1 imaginary frequencies (negative Signs) ****** 
 Diagonal vibrational polarizability:
        1.8193164       5.2239314       2.5743682
 Harmonic frequencies (cm**-1), IR intensities (KM/Mole), Raman scattering
 activities (A**4/AMU), depolarization ratios for plane and unpolarized
 incident light, reduced masses (AMU), force constants (mDyne/A),
 and normal coordinates:
                      1                      2                      3
                      A                      A                      A
 Frequencies --  -1490.3632               589.7861               639.9637
 Red. masses --      1.2129                 2.2402                 3.8610
 Frc consts  --      1.5873                 0.4591                 0.9317
 IR Inten    --    104.4307                 2.4015                 3.4941
  Atom  AN      X      Y      Z        X      Y      Z        X      Y      Z
     1   1    -0.01   0.00   0.00     0.00  -0.29   0.00     0.03   0.52   0.01
     2   6    -0.03   0.00   0.00     0.01  -0.19   0.00     0.01   0.15   0.01
     3   6     0.01  -0.00   0.03     0.00   0.22  -0.00     0.00  -0.01  -0.00
     4   6     0.02   0.06  -0.05     0.00   0.05   0.00    -0.02  -0.31  -0.01
     5   1     0.00   0.01   0.01     0.01   0.56   0.00     0.00   0.14  -0.01
     6   1     0.23   0.15   0.94    -0.38   0.15   0.13    -0.16   0.08   0.42
     7   6     0.04  -0.01  -0.02    -0.00  -0.15  -0.01    -0.01  -0.19   0.00
     8   7    -0.05  -0.05  -0.04     0.01   0.04   0.00     0.02   0.30  -0.02
     9   1    -0.03  -0.16  -0.01     0.09   0.40  -0.04    -0.01  -0.32  -0.07
    10   1     0.00   0.01   0.00    -0.00  -0.36  -0.03    -0.04  -0.37   0.00
                      4                      5                      6
                      A                      A                      A
 Frequencies --    752.8530               840.4551               872.7395
 Red. masses --      1.1260                 1.4291                 2.3199
 Frc consts  --      0.3760                 0.5948                 1.0411
 IR Inten    --     92.2199                 5.0383                16.6043
  Atom  AN      X      Y      Z        X      Y      Z        X      Y      Z
     1   1    -0.02   0.55   0.01     0.02  -0.36   0.03    -0.12   0.45  -0.14
     2   6     0.00  -0.03   0.01    -0.02   0.04   0.03     0.03  -0.08  -0.14
     3   6     0.01  -0.08  -0.00     0.01   0.00   0.02    -0.06  -0.04  -0.04
     4   6     0.00  -0.03   0.01    -0.02   0.06   0.01     0.14   0.09   0.00
     5   1     0.01   0.38  -0.01    -0.01   0.23  -0.05     0.01   0.38   0.17
     6   1    -0.28   0.03   0.13     0.07  -0.01  -0.15     0.20   0.03  -0.13
     7   6     0.00   0.02   0.00     0.01  -0.16   0.01    -0.05  -0.04  -0.02
     8   7     0.01  -0.03  -0.03     0.02   0.03  -0.05    -0.07   0.03   0.20
     9   1     0.10   0.44   0.05    -0.13  -0.36   0.05     0.04  -0.58  -0.20
    10   1    -0.00   0.49   0.05    -0.04   0.76   0.13     0.15   0.07  -0.14
                      7                      8                      9
                      A                      A                      A
 Frequencies --    881.5992               891.0444               939.4225
 Red. masses --      2.0655                 3.5402                 1.6516
 Frc consts  --      0.9458                 1.6561                 0.8588
 IR Inten    --      7.4712                 4.4697                 6.2481
  Atom  AN      X      Y      Z        X      Y      Z        X      Y      Z
     1   1    -0.11   0.45   0.18    -0.28  -0.36   0.12    -0.14  -0.49  -0.03
     2   6    -0.02  -0.10   0.18     0.08   0.08   0.12     0.01   0.09  -0.03
     3   6     0.14  -0.04  -0.01     0.23   0.02  -0.12    -0.01  -0.13  -0.02
     4   6    -0.10   0.09   0.03     0.01  -0.05   0.08     0.09  -0.01   0.10
     5   1     0.10   0.33  -0.17     0.29  -0.25   0.07     0.02   0.71   0.03
     6   1     0.20  -0.05  -0.23    -0.26   0.04   0.21    -0.09  -0.05   0.05
     7   6     0.02   0.04  -0.06    -0.12  -0.03  -0.23    -0.04   0.07   0.01
     8   7    -0.02   0.02  -0.09    -0.16  -0.02   0.14    -0.02  -0.01  -0.07
     9   1    -0.18  -0.45  -0.16     0.15   0.21  -0.24     0.07  -0.03   0.16
    10   1    -0.17  -0.35   0.02    -0.04   0.32  -0.25    -0.12  -0.34   0.02
                     10                     11                     12
                      A                      A                      A
 Frequencies --    954.7918              1066.6097              1091.7094
 Red. masses --      2.4376                 1.3718                 1.2460
 Frc consts  --      1.3092                 0.9195                 0.8749
 IR Inten    --     33.3812                10.8722                 1.2803
  Atom  AN      X      Y      Z        X      Y      Z        X      Y      Z
     1   1    -0.46   0.32  -0.04     0.26   0.05  -0.06     0.71   0.07  -0.00
     2   6    -0.02  -0.06  -0.04     0.03  -0.02  -0.05     0.09  -0.01  -0.01
     3   6    -0.00   0.10  -0.02     0.02  -0.01   0.06    -0.02   0.01  -0.07
     4   6     0.17   0.01   0.20    -0.09   0.01   0.03    -0.00   0.02   0.07
     5   1     0.03  -0.54   0.14     0.21   0.04   0.71    -0.15  -0.07  -0.48
     6   1    -0.02  -0.11   0.00     0.05  -0.00   0.04    -0.21   0.04   0.13
     7   6    -0.08  -0.03   0.01    -0.04   0.00  -0.10    -0.05   0.01  -0.01
     8   7    -0.02   0.01  -0.17     0.05   0.00  -0.02    -0.02  -0.01   0.01
     9   1     0.12  -0.13   0.31    -0.21  -0.03   0.49    -0.10  -0.19   0.30
    10   1    -0.28   0.08   0.14     0.11  -0.02  -0.21    -0.12  -0.01   0.03
                     13                     14                     15
                      A                      A                      A
 Frequencies --   1135.6202              1175.8264              1251.0530
 Red. masses --      2.2099                 1.1442                 1.7649
 Frc consts  --      1.6792                 0.9320                 1.6275
 IR Inten    --      2.3160                25.6499                 1.7164
  Atom  AN      X      Y      Z        X      Y      Z        X      Y      Z
     1   1    -0.31   0.01  -0.19     0.10   0.01   0.01    -0.14   0.01  -0.05
     2   6    -0.01  -0.01  -0.17    -0.00  -0.02   0.01     0.02  -0.00  -0.04
     3   6     0.19   0.01  -0.07     0.00   0.00   0.00     0.06   0.00   0.03
     4   6    -0.11   0.00  -0.05     0.02  -0.03  -0.01    -0.02  -0.00   0.01
     5   1     0.21   0.01  -0.09    -0.05   0.11  -0.19     0.02  -0.02  -0.15
     6   1    -0.02   0.06   0.07     0.78  -0.18  -0.09    -0.26  -0.02  -0.12
     7   6     0.01   0.00   0.13    -0.01  -0.04  -0.02     0.12  -0.01   0.09
     8   7    -0.01  -0.00   0.08    -0.07   0.05   0.01    -0.17   0.02  -0.05
     9   1    -0.22   0.00   0.39     0.06   0.43   0.32    -0.13  -0.08   0.33
    10   1    -0.52  -0.04   0.48    -0.03   0.01  -0.01     0.76  -0.01  -0.31
                     16                     17                     18
                      A                      A                      A
 Frequencies --   1312.4149              1432.0172              1483.1320
 Red. masses --      1.8386                 2.8752                 3.1520
 Frc consts  --      1.8658                 3.4739                 4.0851
 IR Inten    --      2.3667                 7.6180                 3.1396
  Atom  AN      X      Y      Z        X      Y      Z        X      Y      Z
     1   1    -0.55  -0.00   0.09    -0.29   0.01  -0.04    -0.04   0.00  -0.23
     2   6     0.08  -0.00   0.08     0.23  -0.01  -0.03    -0.04   0.00  -0.19
     3   6    -0.02  -0.01   0.05    -0.05   0.00  -0.13     0.12  -0.00   0.31
     4   6     0.05   0.00  -0.15    -0.18   0.03   0.11    -0.07  -0.00   0.12
     5   1    -0.15   0.02  -0.36    -0.00   0.00  -0.00    -0.18  -0.00  -0.70
     6   1    -0.11   0.16   0.02     0.42  -0.14   0.30     0.02  -0.08   0.04
     7   6    -0.15   0.01  -0.02    -0.14  -0.02   0.16    -0.08   0.01  -0.11
     8   7     0.10  -0.01   0.02     0.08  -0.01  -0.06     0.06  -0.00  -0.00
     9   1    -0.14  -0.11   0.58    -0.04   0.12  -0.48     0.05   0.05  -0.41
    10   1     0.13  -0.00  -0.21     0.42   0.05  -0.18     0.05   0.01  -0.22
                     19                     20                     21
                      A                      A                      A
 Frequencies --   1510.5678              2182.5758              3207.3844
 Red. masses --      3.5477                 1.0725                 1.0894
 Frc consts  --      4.7695                 3.0101                 6.6029
 IR Inten    --      1.5785                15.9342                 8.9074
  Atom  AN      X      Y      Z        X      Y      Z        X      Y      Z
     1   1    -0.55  -0.00  -0.02     0.01   0.00  -0.01     0.00  -0.00  -0.10
     2   6     0.28  -0.00  -0.02     0.00   0.00  -0.01    -0.00  -0.00   0.01
     3   6    -0.19   0.00   0.09    -0.00  -0.00  -0.00     0.04  -0.00  -0.01
     4   6    -0.10  -0.01   0.04    -0.01  -0.05   0.04    -0.01   0.00  -0.00
     5   1    -0.26  -0.01  -0.01    -0.00   0.01  -0.00    -0.43   0.01   0.12
     6   1    -0.07  -0.00  -0.01     0.21   0.96  -0.17     0.00  -0.00   0.00
     7   6     0.24   0.00  -0.17    -0.00   0.00   0.01    -0.04   0.01  -0.07
     8   7    -0.09   0.00   0.03    -0.01  -0.03  -0.02     0.00  -0.00  -0.00
     9   1    -0.13   0.02   0.07     0.03   0.00  -0.02     0.07  -0.02   0.02
    10   1    -0.53  -0.01   0.29     0.01   0.01  -0.01     0.47  -0.08   0.74
                     22                     23                     24
                      A                      A                      A
 Frequencies --   3226.8120              3231.3057              3249.5991
 Red. masses --      1.0943                 1.0935                 1.1040
 Frc consts  --      6.7135                 6.7271                 6.8687
 IR Inten    --      6.9838                 1.4670                 0.5088
  Atom  AN      X      Y      Z        X      Y      Z        X      Y      Z
     1   1    -0.00  -0.00   0.49    -0.01  -0.00  -0.23    -0.00  -0.00   0.84
     2   6     0.00   0.00  -0.04     0.00   0.00   0.02     0.00   0.00  -0.08
     3   6    -0.06   0.00   0.02    -0.04   0.00   0.01     0.03  -0.00  -0.01
     4   6     0.03  -0.01   0.01    -0.07   0.02  -0.01    -0.04   0.01  -0.01
     5   1     0.65  -0.01  -0.20     0.47  -0.01  -0.14    -0.30   0.00   0.09
     6   1     0.01   0.01   0.00    -0.01  -0.01  -0.00    -0.00  -0.00   0.00
     7   6    -0.02   0.00  -0.03    -0.00   0.00  -0.01     0.00  -0.00   0.01
     8   7     0.00  -0.00   0.00     0.00   0.00  -0.00    -0.00   0.00   0.00
     9   1    -0.33   0.08  -0.08     0.78  -0.18   0.18     0.41  -0.09   0.09
    10   1     0.22  -0.04   0.36     0.08  -0.01   0.13    -0.05   0.01  -0.09

 -------------------
 - Thermochemistry -
 -------------------
 Temperature   298.150 Kelvin.  Pressure   1.00000 Atm.
 Atom     1 has atomic number  1 and mass   1.00783
 Atom     2 has atomic number  6 and mass  12.00000
 Atom     3 has atomic number  6 and mass  12.00000
 Atom     4 has atomic number  6 and mass  12.00000
 Atom     5 has atomic number  1 and mass   1.00783
 Atom     6 has atomic number  1 and mass   1.00783
 Atom     7 has atomic number  6 and mass  12.00000
 Atom     8 has atomic number  7 and mass  14.00307
 Atom     9 has atomic number  1 and mass   1.00783
 Atom    10 has atomic number  1 and mass   1.00783
 Molecular mass:    67.04220 amu.
 Principal axes and moments of inertia in atomic units:
                           1         2         3
     Eigenvalues --   196.15408 204.03946 392.55933
           X           -0.38614   0.92244  -0.00203
           Y           -0.01302  -0.00325   0.99991
           Z            0.92235   0.38613   0.01326
 This molecule is an asymmetric top.
 Rotational symmetry number  1.
 Rotational temperatures (Kelvin)      0.44156     0.42450     0.22064
 Rotational constants (GHZ):           9.20063     8.84506     4.59737
    1 imaginary frequencies ignored.
 Zero-point vibrational energy     202882.4 (Joules/Mol)
                                   48.49005 (Kcal/Mol)
 Warning -- explicit consideration of   1 degrees of freedom as
           vibrations may cause significant error
 Vibrational temperatures:    848.57   920.76  1083.19  1209.23  1255.68
          (Kelvin)           1268.42  1282.01  1351.62  1373.73  1534.61
                             1570.73  1633.90  1691.75  1799.99  1888.27
                             2060.35  2133.90  2173.37  3140.24  4614.71
                             4642.66  4649.13  4675.45
 
 Zero-point correction=                           0.077274 (Hartree/Particle)
 Thermal correction to Energy=                    0.080971
 Thermal correction to Enthalpy=                  0.081915
 Thermal correction to Gibbs Free Energy=         0.050989
 Sum of electronic and zero-point Energies=           -210.101878
 Sum of electronic and thermal Energies=              -210.098181
 Sum of electronic and thermal Enthalpies=            -210.097236
 Sum of electronic and thermal Free Energies=         -210.128163
 
                     E (Thermal)             CV                S
                      KCal/Mol        Cal/Mol-Kelvin    Cal/Mol-Kelvin
 Total                   50.810             13.373             65.089
 Electronic               0.000              0.000              0.000
 Translational            0.889              2.981             38.526
 Rotational               0.889              2.981             24.267
 Vibrational             49.033              7.412              2.297
 Vibration     1          0.947              1.054              0.468
                       Q            Log10(Q)             Ln(Q)
 Total Bot       0.352043D-23        -23.453404        -54.003459
 Total V=0       0.123041D+13         12.090050         27.838370
 Vib (Bot)       0.363635D-35        -35.439334        -81.602083
 Vib (Bot)    1  0.255831D+00         -0.592046         -1.363236
 Vib (V=0)       0.127093D+01          0.104120          0.239745
 Vib (V=0)    1  0.106165D+01          0.025981          0.059823
 Electronic      0.100000D+01          0.000000          0.000000
 Translational   0.215763D+08          7.333976         16.887104
 Rotational      0.448698D+05          4.651954         10.711520
 -------------------------------------------------------------------
 Center     Atomic                   Forces (Hartrees/Bohr)
 Number     Number              X              Y              Z
 -------------------------------------------------------------------
      1        1          -0.000367751   -0.000027336   -0.000000073
      2        6           0.000371206    0.000181395    0.000000110
      3        6           0.000001020   -0.000151447   -0.000001934
      4        6          -0.000008593   -0.000001121   -0.000001292
      5        1           0.000000057   -0.000000403   -0.000000199
      6        1          -0.000002510    0.000001218    0.000000486
      7        6           0.000006121    0.000001405    0.000003885
      8        7           0.000000030   -0.000003492    0.000001366
      9        1          -0.000000728   -0.000000706   -0.000002414
     10        1           0.000001148    0.000000486    0.000000066
 -------------------------------------------------------------------
 Cartesian Forces:  Max     0.000371206 RMS     0.000104847
 -----------------------------------------------------------------------------------------------
                       Internal Coordinate Forces (Hartree/Bohr or radian)
  Cent   Atom   N1       Length/X         N2         Alpha/Y        N3         Beta/Z          J
 -----------------------------------------------------------------------------------------------
      1  H 
      2  C        1   0.000000(     1)
      3  C        2   0.000008(     2)      1  -0.000033(    10)
      4  C        2   0.000008(     3)      1  -0.000032(    11)      3   0.000003(    18)     0
      5  H        3   0.000000(     4)      2  -0.000000(    12)      1  -0.000006(    19)     0
      6  H        4  -0.000000(     5)      2   0.000007(    13)      1  -0.000008(    20)     0
      7  C        3   0.000001(     6)      2   0.000023(    14)      5  -0.000005(    21)     0
      8  N        4   0.000001(     7)      2   0.000001(    15)      6  -0.000009(    22)     0
      9  H        4   0.000001(     8)      2  -0.000004(    16)      6   0.000002(    23)     0
     10  H        7   0.000001(     9)      3  -0.000002(    17)      2   0.000001(    24)     0
 -----------------------------------------------------------------------------------------------
 Internal  Forces:  Max     0.000033225 RMS     0.000011303

 GradGradGradGradGradGradGradGradGradGradGradGradGradGradGradGradGradGrad
 Berny optimization.
 Search for a saddle point.
 Step number   1 out of a maximum of    2
 All quantities printed in internal units (Hartrees-Bohrs-Radians)
 Swapping is turned off.
 Second derivative matrix not updated -- analytic derivatives used.
 ITU=  0
     Eigenvalues ---   -0.23935   0.01532   0.03635   0.04195   0.05718
     Eigenvalues ---    0.09934   0.12308   0.17555   0.20643   0.22043
     Eigenvalues ---    0.23301   0.28719   0.33915   0.36169   0.36286
     Eigenvalues ---    0.36803   0.36837   0.41173   0.47534   0.49807
     Eigenvalues ---    0.64768   2.12351   2.88487  21.77395
 Eigenvectors required to have negative eigenvalues:
                          D8        R6        D6        R8        R4
   1                    0.65903  -0.52962  -0.33406   0.18534   0.15232
                          D5        A8        A6        D4        R3
   1                   -0.13764  -0.12618  -0.12535  -0.12087  -0.12074
 Angle between quadratic step and forces=  83.08 degrees.
 Linear search not attempted -- option 19 set.
 Variable       Old X    -DE/DX   Delta X   Delta X   Delta X     New X
                                 (Linear)    (Quad)   (Total)
    R2        2.03776   0.00000   0.00000   0.00000   0.00000   2.03776
    R3        2.63058   0.00001   0.00000  -0.00000  -0.00000   2.63058
    R4        2.64311   0.00001   0.00000   0.00001   0.00001   2.64312
    R5        2.04008   0.00000   0.00000   0.00000   0.00000   2.04008
    R6        2.44143  -0.00000   0.00000  -0.00000  -0.00000   2.44142
    R7        2.63503   0.00000   0.00000   0.00000   0.00000   2.63504
    R8        2.75279   0.00000   0.00000   0.00002   0.00002   2.75280
    R9        2.03931   0.00000   0.00000   0.00000   0.00000   2.03931
   R10        2.04137   0.00000   0.00000   0.00000   0.00000   2.04137
    A3        2.21896  -0.00003   0.00000  -0.00001  -0.00001   2.21895
    A4        2.20266  -0.00003   0.00000   0.00000   0.00000   2.20266
    A5        2.20222  -0.00000   0.00000  -0.00000  -0.00000   2.20221
    A6        2.00351   0.00001   0.00000   0.00002   0.00002   2.00352
    A7        1.87728   0.00002   0.00000   0.00000   0.00000   1.87728
    A8        1.90863   0.00000   0.00000  -0.00001  -0.00001   1.90862
    A9        2.26296  -0.00000   0.00000  -0.00001  -0.00001   2.26295
   A10        2.23156  -0.00000   0.00000  -0.00000  -0.00000   2.23156
    D4        3.14454   0.00000   0.00000   0.00013   0.00013   3.14466
    D5       -0.02094  -0.00001   0.00000   0.00009   0.00009  -0.02085
    D6        2.12544  -0.00001   0.00000  -0.00008  -0.00008   2.12536
    D7       -3.10211  -0.00000   0.00000  -0.00000  -0.00000  -3.10211
    D8        1.03422  -0.00001   0.00000  -0.00000  -0.00000   1.03421
    D9       -2.41390   0.00000   0.00000  -0.00000  -0.00000  -2.41390
   D10        3.03806   0.00000   0.00000   0.00002   0.00002   3.03808
         Item               Value     Threshold  Converged?
 Maximum Force            0.000033     0.000450     YES
 RMS     Force            0.000011     0.000300     YES
 Maximum Displacement     0.000127     0.001800     YES
 RMS     Displacement     0.000037     0.001200     YES
 Predicted change in Energy=-5.966133D-10
 Optimization completed.
    -- Stationary point found.
                       ----------------------------
                       !   Optimized Parameters   !
                       ! (Angstroms and Degrees)  !
 ----------------------                            ----------------------
 !      Name          Value   Derivative information (Atomic Units)     !
 ------------------------------------------------------------------------
 !       R2          1.0783   -DE/DX =    0.0                           !
 !       R3          1.392    -DE/DX =    0.0                           !
 !       R4          1.3987   -DE/DX =    0.0                           !
 !       R5          1.0796   -DE/DX =    0.0                           !
 !       R6          1.2919   -DE/DX =    0.0                           !
 !       R7          1.3944   -DE/DX =    0.0                           !
 !       R8          1.4567   -DE/DX =    0.0                           !
 !       R9          1.0792   -DE/DX =    0.0                           !
 !       R10         1.0802   -DE/DX =    0.0                           !
 !       A3        127.1371   -DE/DX =    0.0                           !
 !       A4        126.203    -DE/DX =    0.0                           !
 !       A5        126.1777   -DE/DX =    0.0                           !
 !       A6        114.7925   -DE/DX =    0.0                           !
 !       A7        107.5603   -DE/DX =    0.0                           !
 !       A8        109.3565   -DE/DX =    0.0                           !
 !       A9        129.6579   -DE/DX =    0.0                           !
 !       A10       127.8592   -DE/DX =    0.0                           !
 !       D4        180.1687   -DE/DX =    0.0                           !
 !       D5         -1.1998   -DE/DX =    0.0                           !
 !       D6        121.7788   -DE/DX =    0.0                           !
 !       D7       -177.7376   -DE/DX =    0.0                           !
 !       D8         59.2563   -DE/DX =    0.0                           !
 !       D9       -138.3062   -DE/DX =    0.0                           !
 !       D10       174.0682   -DE/DX =    0.0                           !
 ------------------------------------------------------------------------
 GradGradGradGradGradGradGradGradGradGradGradGradGradGradGradGradGradGrad


 ----------------------------------------------------------------------

 Electric dipole moment (input orientation):
 (Debye = 10**-18 statcoulomb cm , SI units = C m)
                  (au)            (Debye)         (10**-30 SI)
   Tot        0.848125D+00      0.215572D+01      0.719071D+01
   x          0.564871D-01      0.143576D+00      0.478917D+00
   y         -0.327808D+00     -0.833206D+00     -0.277928D+01
   z         -0.780171D+00     -0.198300D+01     -0.661457D+01

 Dipole polarizability, Alpha (input orientation).
 (esu units = cm**3 , SI units = C**2 m**2 J**-1)
 Alpha(0;0):
               (au)            (10**-24 esu)      (10**-40 SI)
   iso        0.504739D+02      0.747946D+01      0.832202D+01
   aniso      0.247480D+02      0.366727D+01      0.408039D+01
   xx         0.596405D+02      0.883781D+01      0.983339D+01
   yx         0.175383D+01      0.259891D+00      0.289168D+00
   yy         0.343117D+02      0.508447D+01      0.565723D+01
   zx         0.171084D+01      0.253520D+00      0.282079D+00
   zy        -0.102961D+01     -0.152573D+00     -0.169760D+00
   zz         0.574695D+02      0.851610D+01      0.947544D+01

 ----------------------------------------------------------------------

 Dipole orientation:
     1          0.00000000          0.00000000          0.00000000
     6          0.13571961          0.78761428         -1.87449178
     6          2.33372725          1.37332915         -3.19572116
     6         -1.88825535          1.42539843         -3.45017633
     1          4.24372876          1.15264700         -2.51371812
     1         -1.94134735          3.76281696         -4.15318375
     6          1.61781170          2.38758458         -5.51997132
     7         -0.91660099          2.38745752         -5.83935170
     1         -3.84807347          0.87250129         -3.33973934
     1          2.81965601          3.20152815         -6.95533022

 Electric dipole moment (dipole orientation):
 (Debye = 10**-18 statcoulomb cm , SI units = C m)
                  (au)            (Debye)         (10**-30 SI)
   Tot        0.848125D+00      0.215572D+01      0.719071D+01
   x          0.000000D+00      0.000000D+00      0.000000D+00
   y          0.000000D+00      0.000000D+00      0.000000D+00
   z          0.848125D+00      0.215572D+01      0.719071D+01

 Dipole polarizability, Alpha (dipole orientation).
 (esu units = cm**3 , SI units = C**2 m**2 J**-1)
 Alpha(0;0):
               (au)            (10**-24 esu)      (10**-40 SI)
   iso        0.504739D+02      0.747946D+01      0.832202D+01
   aniso      0.247480D+02      0.366727D+01      0.408039D+01
   xx         0.598988D+02      0.887608D+01      0.987597D+01
   yx        -0.640536D+00     -0.949176D-01     -0.105610D+00
   yy         0.385354D+02      0.571036D+01      0.635363D+01
   zx        -0.193380D+01     -0.286559D+00     -0.318840D+00
   zy        -0.900927D+01     -0.133504D+01     -0.148543D+01
   zz         0.529875D+02      0.785194D+01      0.873646D+01

 ----------------------------------------------------------------------
 1\1\GINC-BHC0068\Freq\RB3LYP\def2TZVP\C4H5N1\DHANAWAY\10-Jun-2022\1\\#
 N Geom=AllCheck Guess=TCheck SCRF=Check GenChk RB3LYP/def2TZVP Freq\\t
 s_zmat_initalOpt\\0,1\H\C,1,R2\C,2,R3,1,A3\C,2,R4,1,A4,3,D4,0\H,3,R5,2
 ,A5,1,D5,0\H,4,R6,2,A6,1,D6,0\C,3,R7,2,A7,5,D7,0\N,4,R8,2,A8,6,D8,0\H,
 4,R9,2,A9,6,D9,0\H,7,R10,3,A10,2,D10,0\\R2=1.07833741\R3=1.39204252\R4
 =1.39867304\R5=1.0795649\R6=1.29194729\R7=1.39439831\R8=1.45671143\R9=
 1.07915552\R10=1.08024617\A3=127.13713337\A4=126.20295112\A5=126.17772
 298\A6=114.79253985\A7=107.56028581\A8=109.35653674\A9=129.65785281\A1
 0=127.85920197\D4=180.1686582\D5=-1.19977611\D6=121.77883258\D7=-177.7
 376247\D8=59.25631838\D9=-138.30617029\D10=174.0681731\\Version=ES64L-
 G16RevA.03\HF=-210.1791518\RMSD=7.889e-09\RMSF=1.048e-04\ZeroPoint=0.0
 772738\Thermal=0.0809712\Dipole=0.0564871,-0.3278084,-0.7801714\Dipole
 Deriv=0.1010371,-0.003715,0.0035708,-0.0133484,0.1709225,0.0021419,-0.
 003451,0.0034044,-0.0040126,0.000007,0.0912124,-0.0055487,0.0867968,-0
 .1754587,0.0429072,0.0502489,-0.0004816,-0.0182497,0.0603001,-0.034665
 5,-0.0298706,0.0096878,-0.1609471,0.0397738,-0.0805147,-0.0379795,-0.0
 225285,-0.0452274,-0.140003,-0.0583386,-0.3707387,-0.1652887,0.0153436
 ,-0.1840625,-0.0418743,0.1084365,-0.0543758,0.0005089,0.0381167,0.0007
 7,0.164017,-0.0097292,0.0355661,-0.0012334,0.0852655,0.0527064,0.00172
 01,0.0269193,-0.0044387,0.1016033,0.0252424,-0.1375898,-0.1148358,0.27
 17935,-0.0049607,-0.081095,0.0430399,-0.0006399,-0.1326202,-0.1152579,
 -0.0261131,-0.0076656,0.1857806,-0.1560939,0.1324659,0.0723075,0.15305
 01,-0.1296767,-0.0637763,0.4350174,0.1745089,-0.6292215,0.0338347,0.02
 90524,-0.0169242,0.1261377,0.1758593,0.0141918,-0.0012524,0.0105632,0.
 0739249,0.0127726,0.0045189,-0.0732721,0.0127232,0.1515894,0.0491629,-
 0.087849,0.0155936,-0.0511887\Polar=59.6405022,1.753833,34.3116895,1.7
 108384,-1.0296139,57.469491\PG=C01 [X(C4H5N1)]\NImag=1\\0.04916788,0.0
 0054658,0.02329852,-0.00014373,-0.00022658,0.36926113,-0.05835046,0.00
 099257,0.00029118,0.56276151,-0.00113327,-0.03136942,0.00041107,-0.003
 60572,0.13121490,0.00032126,-0.00114383,-0.35311419,0.00400782,-0.0029
 9331,0.83803407,0.00799009,0.00004673,0.00426901,-0.25693154,0.0004294
 1,-0.12288815,0.81609666,0.00017138,0.00135335,-0.00012137,0.00103275,
 -0.06400939,-0.00005022,-0.00383580,0.13398862,-0.02350529,0.,-0.00698
 833,-0.07719667,0.00091781,-0.19510385,-0.06823813,-0.00445391,0.58996
 746,0.00841542,-0.00091246,-0.00455563,-0.23384301,0.00424848,0.117271
 60,-0.06735959,-0.00008843,-0.03894671,0.78091400,0.00089351,-0.000700
 05,-0.00028246,0.04796125,-0.06801093,0.00068336,-0.00894230,0.0100607
 6,-0.03770905,-0.10640213,0.14016154,0.02223220,0.00152811,-0.00746251
 ,0.08224509,0.00303644,-0.17352942,0.02242239,0.00224829,0.05060124,0.
 01238282,-0.00303971,0.42380301,0.00049630,-0.00009351,-0.00026127,-0.
 01157940,0.00020768,0.01043749,-0.32340123,0.00438047,0.07944120,-0.00
 321174,0.00055838,-0.00122708,0.33971697,0.00001201,-0.00293263,0.0000
 1796,-0.00058782,0.00118379,-0.00039783,0.00542191,-0.03525866,-0.0013
 9664,-0.00062124,0.00589711,-0.00123563,-0.00513428,0.02512280,0.00115
 980,-0.00007111,0.00023937,-0.01811144,0.00026050,0.01200059,0.0798470
 5,-0.00158398,-0.08393813,-0.00453878,-0.00045662,-0.00312341,-0.08680
 201,0.00165595,0.07563848,0.00057167,0.00081592,-0.00000019,0.01517522
 ,-0.01034081,-0.00390581,-0.00933201,-0.00149590,-0.01780876,-0.021032
 29,-0.03130562,0.03671528,0.00008467,0.00315294,-0.00041694,0.04536154
 ,0.00043300,0.00050547,-0.00007637,0.00698429,0.00267416,-0.00605018,-
 0.00303842,-0.00017263,-0.00724308,-0.00763878,-0.09622146,0.06719446,
 0.00025534,0.00083415,-0.00044935,0.02232125,0.15917193,0.00112377,-0.
 00005865,-0.00019602,0.05459857,0.00393793,-0.01046758,-0.00834484,0.0
 0219001,-0.04153970,-0.03419149,-0.04361913,0.04146920,-0.00013804,-0.
 00196676,-0.00136659,-0.02389609,-0.03755333,-0.04990503,-0.00484986,-
 0.00063192,-0.00097550,0.05058671,0.00150364,-0.00407170,-0.13718655,0
 .00482726,0.03867169,-0.08370405,-0.04811652,-0.00125601,-0.00128856,-
 0.00196320,0.02480061,-0.03685110,-0.00995884,-0.05923408,0.63048318,0
 .00003589,0.00502029,0.00014013,-0.00766043,0.01237519,0.00183296,0.00
 222908,-0.06667517,0.01661704,0.00592293,0.01345837,-0.01021530,0.0002
 0716,-0.00124409,-0.00070966,-0.01649306,0.00497585,0.00871044,-0.0112
 3613,0.14741180,-0.00374371,0.00019370,-0.00120452,-0.06481688,-0.0007
 5630,-0.05656093,0.08204986,0.00432248,-0.29550197,-0.03209151,0.02041
 271,-0.06042247,-0.00261120,-0.00007087,0.00407077,0.01234791,0.009472
 28,0.01813233,0.11351263,-0.03716446,0.76165734,-0.00428173,-0.0003198
 5,0.00073239,-0.05763255,0.00491599,0.00482032,-0.03825466,-0.00465476
 ,0.09508285,-0.05046307,0.07617717,-0.11796582,-0.00026490,-0.00010510
 ,0.00559367,0.00542228,-0.01062193,0.06895059,-0.29031413,0.01411232,0
 .01710028,0.45794060,-0.00099107,0.00580217,0.00010076,-0.03881709,0.0
 1143010,0.00872727,0.00786679,0.01601689,0.03040338,0.03289732,0.02636
 379,-0.07037211,-0.00011587,0.00763042,0.00140023,0.01774422,-0.072435
 97,0.05624458,0.04789385,-0.08592167,-0.01990156,-0.06578787,0.1088281
 7,0.00448506,-0.00022491,-0.00027810,0.00319396,0.00064475,-0.06876499
 ,0.02324730,-0.00569933,-0.00505984,0.03328353,0.04885181,-0.20713761,
 -0.00005709,0.00294603,-0.00467573,0.00013402,-0.02420113,0.04555885,0
 .01349843,-0.00299669,-0.09551608,-0.04686791,-0.01412840,0.33094657,-
 0.00002429,-0.00059320,0.00038836,-0.00933801,0.00356465,-0.00922407,-
 0.00257489,0.00076512,0.00330335,-0.32379276,0.06742012,-0.05700876,-0
 .00044493,-0.00019760,-0.00061414,0.00052724,0.00014047,0.00125697,0.0
 0246910,0.00113587,-0.00053578,-0.00361546,-0.00219848,-0.00243848,0.3
 3693419,0.00002082,-0.00172651,0.00007754,-0.00860930,-0.00020490,-0.0
 0037902,0.00020710,0.00354271,0.00553392,0.07443838,-0.03453117,0.0095
 0375,-0.00023679,0.00073794,-0.00005621,0.01591684,-0.00084272,0.01355
 688,0.00496580,0.00171099,-0.00314449,-0.01579469,-0.01229775,-0.00769
 310,-0.07019537,0.04181527,-0.00081354,0.00014505,-0.00001122,0.013963
 63,-0.00575753,0.01194739,0.00445620,0.00108103,-0.00210472,-0.0506085
 7,0.01415535,-0.06512735,0.00063923,0.00064633,0.00100954,-0.00344772,
 -0.00118016,-0.00242063,0.00023510,0.00051103,-0.00810124,-0.02756597,
 0.00899434,-0.00173140,0.06484978,-0.01741441,0.06624904,0.00086500,0.
 00014913,0.00025539,-0.00084847,0.00020997,0.00323124,0.01095372,-0.00
 110211,0.00919647,-0.00592291,0.00175615,0.00145989,-0.00010718,0.0000
 2240,-0.00091782,0.00007279,0.00112361,-0.00012536,-0.12934473,0.01174
 636,-0.12121159,-0.01853638,0.00150818,-0.02847882,-0.00014020,-0.0007
 1278,-0.00170814,0.14300837,0.00001115,0.00074880,-0.00004068,0.002309
 49,0.00471651,-0.00022919,-0.00038449,0.00115353,-0.00266946,-0.001844
 07,0.00352205,0.00135170,-0.00002858,-0.00197083,0.00001024,-0.0003157
 8,0.00151123,-0.00144196,0.01271606,-0.03111157,0.02663652,0.00207872,
 -0.00541616,0.00250098,0.00015842,0.00179613,-0.00118104,-0.01470092,0
 .02505031,-0.00111581,-0.00014177,-0.00024562,0.00182473,0.00029866,-0
 .00444108,-0.01682069,0.00206701,-0.01033216,0.00199473,0.00100373,0.0
 0092933,0.00057876,-0.00019854,0.00014511,0.00027831,0.00008686,0.0007
 3516,-0.12518117,0.02327451,-0.26655323,0.00011961,-0.00146849,0.00665
 834,0.00002278,0.00001514,0.00029060,0.13829875,-0.02493711,0.27281354
 \\0.00036775,0.00002734,0.00000007,-0.00037121,-0.00018140,-0.00000011
 ,-0.00000102,0.00015145,0.00000193,0.00000859,0.00000112,0.00000129,-0
 .00000006,0.00000040,0.00000020,0.00000251,-0.00000122,-0.00000049,-0.
 00000612,-0.00000141,-0.00000389,-0.00000003,0.00000349,-0.00000137,0.
 00000073,0.00000071,0.00000241,-0.00000115,-0.00000049,-0.00000007\\\@


 I DO NOT DEFINE TIME, SPACE, PLACE, AND MOTION, AS BEING WELL KNOWN TO ALL.
                                            -- NEWTON (1642-1726), PRINCIPIA
 Job cpu time:       0 days  0 hours 17 minutes 20.5 seconds.
 Elapsed time:       0 days  0 hours  1 minutes 27.5 seconds.
 File lengths (MBytes):  RWF=     34 Int=      0 D2E=      0 Chk=     32 Scr=      1
 Normal termination of Gaussian 16 at Fri Jun 10 22:59:33 2022.
