 Entering Gaussian System, Link 0=g16
 Input=ts_zmat_field_N100.gjf
 Output=ts_zmat_field_N100.out
 Initial command:
 /software/gaussian/g16-a03/l1.exe "/local_scratch/11174594/Gau-2916.inp" -scrdir="/local_scratch/11174594/"
 Entering Link 1 = /software/gaussian/g16-a03/l1.exe PID=      2917.
  
 Copyright (c) 1988,1990,1992,1993,1995,1998,2003,2009,2016,
            Gaussian, Inc.  All Rights Reserved.
  
 This is part of the Gaussian(R) 16 program.  It is based on
 the Gaussian(R) 09 system (copyright 2009, Gaussian, Inc.),
 the Gaussian(R) 03 system (copyright 2003, Gaussian, Inc.),
 the Gaussian(R) 98 system (copyright 1998, Gaussian, Inc.),
 the Gaussian(R) 94 system (copyright 1995, Gaussian, Inc.),
 the Gaussian 92(TM) system (copyright 1992, Gaussian, Inc.),
 the Gaussian 90(TM) system (copyright 1990, Gaussian, Inc.),
 the Gaussian 88(TM) system (copyright 1988, Gaussian, Inc.),
 the Gaussian 86(TM) system (copyright 1986, Carnegie Mellon
 University), and the Gaussian 82(TM) system (copyright 1983,
 Carnegie Mellon University). Gaussian is a federally registered
 trademark of Gaussian, Inc.
  
 This software contains proprietary and confidential information,
 including trade secrets, belonging to Gaussian, Inc.
  
 This software is provided under written license and may be
 used, copied, transmitted, or stored only in accord with that
 written license.
  
 The following legend is applicable only to US Government
 contracts under FAR:
  
                    RESTRICTED RIGHTS LEGEND
  
 Use, reproduction and disclosure by the US Government is
 subject to restrictions as set forth in subparagraphs (a)
 and (c) of the Commercial Computer Software - Restricted
 Rights clause in FAR 52.227-19.
  
 Gaussian, Inc.
 340 Quinnipiac St., Bldg. 40, Wallingford CT 06492
  
  
 ---------------------------------------------------------------
 Warning -- This program may not be used in any manner that
 competes with the business of Gaussian, Inc. or will provide
 assistance to any competitor of Gaussian, Inc.  The licensee
 of this program is prohibited from giving any competitor of
 Gaussian, Inc. access to this program.  By using this program,
 the user acknowledges that Gaussian, Inc. is engaged in the
 business of creating and licensing software in the field of
 computational chemistry and represents and warrants to the
 licensee that it is not a competitor of Gaussian, Inc. and that
 it will not use this program in any manner prohibited above.
 ---------------------------------------------------------------
  

 Cite this work as:
 Gaussian 16, Revision A.03,
 M. J. Frisch, G. W. Trucks, H. B. Schlegel, G. E. Scuseria, 
 M. A. Robb, J. R. Cheeseman, G. Scalmani, V. Barone, 
 G. A. Petersson, H. Nakatsuji, X. Li, M. Caricato, A. V. Marenich, 
 J. Bloino, B. G. Janesko, R. Gomperts, B. Mennucci, H. P. Hratchian, 
 J. V. Ortiz, A. F. Izmaylov, J. L. Sonnenberg, D. Williams-Young, 
 F. Ding, F. Lipparini, F. Egidi, J. Goings, B. Peng, A. Petrone, 
 T. Henderson, D. Ranasinghe, V. G. Zakrzewski, J. Gao, N. Rega, 
 G. Zheng, W. Liang, M. Hada, M. Ehara, K. Toyota, R. Fukuda, 
 J. Hasegawa, M. Ishida, T. Nakajima, Y. Honda, O. Kitao, H. Nakai, 
 T. Vreven, K. Throssell, J. A. Montgomery, Jr., J. E. Peralta, 
 F. Ogliaro, M. J. Bearpark, J. J. Heyd, E. N. Brothers, K. N. Kudin, 
 V. N. Staroverov, T. A. Keith, R. Kobayashi, J. Normand, 
 K. Raghavachari, A. P. Rendell, J. C. Burant, S. S. Iyengar, 
 J. Tomasi, M. Cossi, J. M. Millam, M. Klene, C. Adamo, R. Cammi, 
 J. W. Ochterski, R. L. Martin, K. Morokuma, O. Farkas, 
 J. B. Foresman, and D. J. Fox, Gaussian, Inc., Wallingford CT, 2016.
 
 ******************************************
 Gaussian 16:  ES64L-G16RevA.03 25-Dec-2016
                10-Jun-2022 
 ******************************************
 %nprocshared=12
 Will use up to   12 processors via shared memory.
 %chk=checkpoint.chk
 %mem=12GB
 ----------------------------------------------------------------------
 # Opt=(TS, CalcFC, noeigentest, Z-matrix, MaxStep=10) geom=allcheckpoi
 nt guess=read Field=read NoSymm B3LYP/Def2TZVP freq=noraman pop=none
 ----------------------------------------------------------------------
 1/5=1,8=10,10=4,11=1,18=40,26=3,29=7,38=1/1,3;
 2/12=2,15=1,29=3,40=1/2;
 3/5=44,7=101,11=2,14=-6,25=1,30=1,71=2,74=-5,116=-2,140=1/1,2,3;
 4/5=1/1;
 5/5=2,38=6/2;
 8/6=4,10=90,11=11/1;
 11/6=1,8=1,9=11,15=111,16=1,31=1/1,2,10;
 10/6=1,13=1,31=1/2;
 7/10=1,18=20,25=1,30=1/1,2,3,16;
 1/5=1,8=10,10=4,11=1,18=40,26=3/3(2);
 2/15=1,29=3/2;
 99//99;
 2/15=1,29=3/2;
 3/5=44,7=101,11=2,14=-2,25=1,30=1,71=1,74=-5/1,2,3;
 4/5=5,16=3,69=1/1;
 5/5=2,38=5/2;
 7/30=1/1,2,3,16;
 1/5=1,8=10,11=1,18=40,26=3/3(-5);
 2/15=1,29=3/2;
 99/9=1/99;
 Structure from the checkpoint file:  "checkpoint.chk"
 -----------------
 ts_zmat_initalOpt
 -----------------
 Charge =  0 Multiplicity = 1
 Z-Matrix found in chk file.
 H
 C,1,R2
 C,2,R3,1,A3
 C,2,R4,1,A4,3,D4,0
 H,3,R5,2,A5,1,D5,0
 H,4,R6,2,A6,1,D6,0
 C,3,R7,2,A7,5,D7,0
 N,4,R8,2,A8,6,D8,0
 H,4,R9,2,A9,6,D9,0
 H,7,R10,3,A10,2,D10,0
      Variables:
 R2=1.07837073
 R3=1.39230523
 R4=1.39784224
 R5=1.07955551
 R6=1.29287695
 R7=1.39396212
 R8=1.45804979
 R9=1.07912591
 R10=1.08061761
 A3=127.05847548
 A4=126.27217513
 A5=126.0549354
 A6=114.60746937
 A7=107.56408838
 A8=109.4103032
 A9=129.64710651
 A10=127.79983084
 D4=180.32443457
 D5=-1.25950496
 D6=121.66122192
 D7=-177.51530003
 D8=59.13414381
 D9=-137.7667147
 D10=173.68620852
 Recover connectivity data from disk.

 GradGradGradGradGradGradGradGradGradGradGradGradGradGradGradGradGradGrad
 Berny optimization.
 Initialization pass.
                       ----------------------------
                       !    Initial Parameters    !
                       ! (Angstroms and Degrees)  !
 ----------------------                            ----------------------
 !      Name          Value   Derivative information (Atomic Units)     !
 ------------------------------------------------------------------------
 !       R2          1.0784   calculate D2E/DX2 analytically            !
 !       R3          1.3923   calculate D2E/DX2 analytically            !
 !       R4          1.3978   calculate D2E/DX2 analytically            !
 !       R5          1.0796   calculate D2E/DX2 analytically            !
 !       R6          1.2929   calculate D2E/DX2 analytically            !
 !       R7          1.394    calculate D2E/DX2 analytically            !
 !       R8          1.458    calculate D2E/DX2 analytically            !
 !       R9          1.0791   calculate D2E/DX2 analytically            !
 !       R10         1.0806   calculate D2E/DX2 analytically            !
 !       A3        127.0585   calculate D2E/DX2 analytically            !
 !       A4        126.2722   calculate D2E/DX2 analytically            !
 !       A5        126.0549   calculate D2E/DX2 analytically            !
 !       A6        114.6075   calculate D2E/DX2 analytically            !
 !       A7        107.5641   calculate D2E/DX2 analytically            !
 !       A8        109.4103   calculate D2E/DX2 analytically            !
 !       A9        129.6471   calculate D2E/DX2 analytically            !
 !       A10       127.7998   calculate D2E/DX2 analytically            !
 !       D4        180.3244   calculate D2E/DX2 analytically            !
 !       D5         -1.2595   calculate D2E/DX2 analytically            !
 !       D6        121.6612   calculate D2E/DX2 analytically            !
 !       D7       -177.5153   calculate D2E/DX2 analytically            !
 !       D8         59.1341   calculate D2E/DX2 analytically            !
 !       D9       -137.7667   calculate D2E/DX2 analytically            !
 !       D10       173.6862   calculate D2E/DX2 analytically            !
 ------------------------------------------------------------------------
 Trust Radius=1.00D-01 FncErr=1.00D-07 GrdErr=1.00D-06 EigMax=2.50D+02 EigMin=1.00D-04
 Number of steps in this run=     34 maximum allowed number of steps=    100.
 Search for a saddle point of order  1.
 GradGradGradGradGradGradGradGradGradGradGradGradGradGradGradGradGradGrad

 ---------------------------------------------------------------------------------------------------
                            Z-MATRIX (ANGSTROMS AND DEGREES)
   CD    Cent   Atom    N1       Length/X        N2       Alpha/Y        N3        Beta/Z          J
 ---------------------------------------------------------------------------------------------------
      1      1  H 
      2      2  C        1   1.078371(     1)
      3      3  C        2   1.392305(     2)      1  127.058(    10)
      4      4  C        2   1.397842(     3)      1  126.272(    11)      3  180.324(    18)      0
      5      5  H        3   1.079556(     4)      2  126.055(    12)      1   -1.260(    19)      0
      6      6  H        4   1.292877(     5)      2  114.607(    13)      1  121.661(    20)      0
      7      7  C        3   1.393962(     6)      2  107.564(    14)      5 -177.515(    21)      0
      8      8  N        4   1.458050(     7)      2  109.410(    15)      6   59.134(    22)      0
      9      9  H        4   1.079126(     8)      2  129.647(    16)      6 -137.767(    23)      0
     10     10  H        7   1.080618(     9)      3  127.800(    17)      2  173.686(    24)      0
 ---------------------------------------------------------------------------------------------------
                         Z-Matrix orientation:                         
 ---------------------------------------------------------------------
 Center     Atomic      Atomic             Coordinates (Angstroms)
 Number     Number       Type             X           Y           Z
 ---------------------------------------------------------------------
      1          1           0        0.000000    0.000000    0.000000
      2          6           0        0.000000    0.000000    1.078371
      3          6           0        1.111089    0.000000    1.917415
      4          6           0       -1.126944   -0.006381    1.905365
      5          1           0        2.143968   -0.019184    1.603996
      6          1           0       -1.190279   -1.007268    2.721296
      7          6           0        0.646086   -0.028416    3.231225
      8          7           0       -0.704208    0.015102    3.300621
      9          1           0       -2.155642    0.218299    1.669117
     10          1           0        1.226351   -0.130322    4.137118
 ---------------------------------------------------------------------
                    Distance matrix (angstroms):
                    1          2          3          4          5
     1  H    0.000000
     2  C    1.078371   0.000000
     3  C    2.216078   1.392305   0.000000
     4  C    2.213698   1.397842   2.238074   0.000000
     5  H    2.677643   2.207544   1.079556   3.284792   0.000000
     6  H    3.136369   2.265074   2.637633   1.292877   3.652654
     7  C    3.295307   2.247892   1.393962   2.214053   2.211698
     8  N    3.374943   2.331209   2.282277   1.458050   3.315391
     9  H    2.735032   2.245758   3.283418   1.079126   4.306656
    10  H    4.317021   3.298008   2.226511   3.245625   2.696494
                    6          7          8          9         10
     6  H    0.000000
     7  C    2.142526   0.000000
     8  N    1.271662   1.352776   0.000000
     9  H    1.881760   3.217255   2.193116   0.000000
    10  H    2.934909   1.080618   2.109012   4.201243   0.000000
 Symmetry turned off by external request.
 Stoichiometry    C4H5N
 Framework group  C1[X(C4H5N)]
 Deg. of freedom    24
 Full point group                 C1      NOp   1
 Rotational constants (GHZ):           9.2001512           8.8402733           4.5957964
 Standard basis: def2TZVP (5D, 7F)
 The following finite field(s) will be applied:
 An electric field of              0.0013  0.0034  0.0093
   185 basis functions,   295 primitive gaussians,   210 cartesian basis functions
    18 alpha electrons       18 beta electrons
       nuclear repulsion energy       160.5351735816 Hartrees.
 NAtoms=   10 NActive=   10 NUniq=   10 SFac= 1.00D+00 NAtFMM=   60 NAOKFM=F Big=F
 Integral buffers will be    131072 words long.
 Raffenetti 2 integral format.
 Two-electron integral symmetry is turned off.
 One-electron integrals computed using PRISM.
   1 Symmetry operations used in ECPInt.
 ECPInt:  NShTT=    2850 NPrTT=    8640 LenC2=    2843 LenP2D=    7479.
 LDataN:  DoStor=T MaxTD1= 6 Len=  172
 NBasis=   185 RedAO= T EigKep=  5.72D-05  NBF=   185
 NBsUse=   185 1.00D-06 EigRej= -1.00D+00 NBFU=   185
 The nuclear repulsion energy is now       161.9674143807 hartrees.
 Initial guess from the checkpoint file:  "checkpoint.chk"
 B after Tr=    -0.000000   -0.000000    0.000000
         Rot=    1.000000   -0.000000   -0.000000   -0.000000 Ang=   0.00 deg.
 Keep R1 ints in memory in canonical form, NReq=160464061.
 Requested convergence on RMS density matrix=1.00D-08 within 128 cycles.
 Requested convergence on MAX density matrix=1.00D-06.
 Requested convergence on             energy=1.00D-06.
 No special actions if energy rises.
 SCF Done:  E(RB3LYP) =  -210.184007728     A.U. after   10 cycles
            NFock= 10  Conv=0.30D-08     -V/T= 2.0052
 DoSCS=F DFT=T ScalE2(SS,OS)=  1.000000  1.000000
 Range of M.O.s used for correlation:     1   185
 NBasis=   185 NAE=    18 NBE=    18 NFC=     0 NFV=     0
 NROrb=    185 NOA=    18 NOB=    18 NVA=   167 NVB=   167

 **** Warning!!: The largest alpha MO coefficient is  0.24526811D+02

   1 Symmetry operations used in ECPInt.
 ECPInt:  NShTT=    2850 NPrTT=    8640 LenC2=    2843 LenP2D=    7479.
 LDataN:  DoStor=T MaxTD1= 7 Len=  274
 Symmetrizing basis deriv contribution to polar:
 IMax=3 JMax=2 DiffMx= 0.00D+00
 G2DrvN: will do    11 centers at a time, making    1 passes.
 Calling FoFCou, ICntrl=  3107 FMM=F I1Cent=   0 AccDes= 0.00D+00.
 End of G2Drv F.D. properties file   721 does not exist.
 End of G2Drv F.D. properties file   722 does not exist.
 End of G2Drv F.D. properties file   788 does not exist.
          IDoAtm=1111111111
          Differentiating once with respect to nuclear coordinates.
 Keep R1 ints in memory in canonical form, NReq=160431867.
          There are    33 degrees of freedom in the 1st order CPHF.  IDoFFX=6 NUNeed=     0.
     27 vectors produced by pass  0 Test12= 9.11D-15 3.03D-09 XBig12= 1.14D-01 1.48D-01.
 AX will form    27 AO Fock derivatives at one time.
     27 vectors produced by pass  1 Test12= 9.11D-15 3.03D-09 XBig12= 1.91D-02 4.08D-02.
     27 vectors produced by pass  2 Test12= 9.11D-15 3.03D-09 XBig12= 2.05D-04 3.71D-03.
     27 vectors produced by pass  3 Test12= 9.11D-15 3.03D-09 XBig12= 7.52D-07 1.20D-04.
     27 vectors produced by pass  4 Test12= 9.11D-15 3.03D-09 XBig12= 1.31D-09 5.19D-06.
     25 vectors produced by pass  5 Test12= 9.11D-15 3.03D-09 XBig12= 2.60D-12 2.60D-07.
      6 vectors produced by pass  6 Test12= 9.11D-15 3.03D-09 XBig12= 5.65D-15 1.38D-08.
 InvSVY:  IOpt=1 It=  1 EMax= 2.11D-15
 Solved reduced A of dimension   166 with    27 vectors.
 End of Minotr F.D. properties file   721 does not exist.
 End of Minotr F.D. properties file   722 does not exist.
 End of Minotr F.D. properties file   788 does not exist.
   1 Symmetry operations used in ECPInt.
 ECPInt:  NShTT=    2850 NPrTT=    8640 LenC2=    2843 LenP2D=    7479.
 LDataN:  DoStor=T MaxTD1= 8 Len=  415
 Calling FoFJK, ICntrl=    100147 FMM=F ISym2X=0 I1Cent= 0 IOpClX= 0 NMat=1 NMatS=1 NMatT=0.
 -------------------------------------------------------------------
 Center     Atomic                   Forces (Hartrees/Bohr)
 Number     Number              X              Y              Z
 -------------------------------------------------------------------
      1        1          -0.000577390   -0.000241385   -0.000077643
      2        6           0.000465832    0.000305267    0.000021386
      3        6           0.000112620   -0.000169575    0.000104913
      4        6           0.000241477    0.000215830   -0.000180367
      5        1          -0.000063295   -0.000120706   -0.000215358
      6        1          -0.000082146   -0.000147092   -0.000479604
      7        6          -0.000018576    0.000431609   -0.000400524
      8        7          -0.000267199    0.000206256    0.001218436
      9        1          -0.000009857   -0.000219388   -0.000191530
     10        1           0.000198536   -0.000260815    0.000200291
 -------------------------------------------------------------------
 Cartesian Forces:  Max     0.001218436 RMS     0.000336630
 -----------------------------------------------------------------------------------------------
                       Internal Coordinate Forces (Hartree/Bohr or radian)
  Cent   Atom   N1       Length/X         N2         Alpha/Y        N3         Beta/Z          J
 -----------------------------------------------------------------------------------------------
      1  H 
      2  C        1   0.000078(     1)
      3  C        2  -0.000004(     2)      1  -0.001865(    10)
      4  C        2   0.000312(     3)      1  -0.001634(    11)      3   0.000349(    18)     0
      5  H        3   0.000004(     4)      2  -0.000461(    12)      1  -0.000432(    19)     0
      6  H        4  -0.000185(     5)      2  -0.000376(    13)      1  -0.000084(    20)     0
      7  C        3  -0.000252(     6)      2   0.000384(    14)      5  -0.000238(    21)     0
      8  N        4   0.001092(     7)      2   0.001673(    15)      6   0.000510(    22)     0
      9  H        4   0.000006(     8)      2  -0.000286(    16)      6   0.000401(    23)     0
     10  H        7   0.000299(     9)      3  -0.000143(    17)      2  -0.000372(    24)     0
 -----------------------------------------------------------------------------------------------
 Internal  Forces:  Max     0.001864783 RMS     0.000706062

 GradGradGradGradGradGradGradGradGradGradGradGradGradGradGradGradGradGrad
 Berny optimization.
 Search for a saddle point.
 Step number   1 out of a maximum of   34
 All quantities printed in internal units (Hartrees-Bohrs-Radians)
 Swapping is turned off.
 Second derivative matrix not updated -- analytic derivatives used.
 ITU=  0
     Eigenvalues ---   -0.23880   0.01643   0.03624   0.04263   0.05532
     Eigenvalues ---    0.10043   0.12410   0.17567   0.20545   0.21983
     Eigenvalues ---    0.23258   0.28719   0.33923   0.36024   0.36283
     Eigenvalues ---    0.36849   0.36885   0.41236   0.47523   0.49830
     Eigenvalues ---    0.64512   2.12863   2.89482  21.67924
 Eigenvectors required to have negative eigenvalues:
                          D8        R6        D6        R8        R4
   1                    0.66015  -0.53049  -0.33182   0.18313   0.15252
                          D5        A6        A8        D4        R3
   1                   -0.13824  -0.12578  -0.12530  -0.12269  -0.11961
 RFO step:  Lambda0=1.592223243D-06 Lambda=-1.44777114D-05.
 Linear search not attempted -- option 19 set.
 Variable       Old X    -DE/DX   Delta X   Delta X   Delta X     New X
                                 (Linear)    (Quad)   (Total)
    R2        2.03783   0.00008   0.00000   0.00021   0.00021   2.03804
    R3        2.63108  -0.00000   0.00000   0.00057   0.00057   2.63164
    R4        2.64154   0.00031   0.00000  -0.00151  -0.00151   2.64003
    R5        2.04006   0.00000   0.00000   0.00001   0.00001   2.04007
    R6        2.44318  -0.00018   0.00000   0.00180   0.00180   2.44498
    R7        2.63421  -0.00025   0.00000  -0.00072  -0.00072   2.63349
    R8        2.75531   0.00109   0.00000   0.00266   0.00266   2.75797
    R9        2.03925   0.00001   0.00000  -0.00002  -0.00002   2.03924
   R10        2.04207   0.00030   0.00000   0.00085   0.00085   2.04292
    A3        2.21759  -0.00186   0.00000  -0.00119  -0.00119   2.21639
    A4        2.20387  -0.00163   0.00000   0.00105   0.00105   2.20492
    A5        2.20007  -0.00046   0.00000  -0.00218  -0.00218   2.19790
    A6        2.00028  -0.00038   0.00000  -0.00316  -0.00316   1.99712
    A7        1.87735   0.00038   0.00000   0.00010   0.00010   1.87745
    A8        1.90957   0.00167   0.00000   0.00095   0.00095   1.91052
    A9        2.26277  -0.00029   0.00000  -0.00030  -0.00030   2.26247
   A10        2.23053  -0.00014   0.00000  -0.00105  -0.00105   2.22948
    D4        3.14726   0.00035   0.00000   0.00178   0.00178   3.14904
    D5       -0.02198  -0.00043   0.00000  -0.00178  -0.00178  -0.02376
    D6        2.12339  -0.00008   0.00000  -0.00120  -0.00120   2.12219
    D7       -3.09823  -0.00024   0.00000   0.00371   0.00371  -3.09452
    D8        1.03209   0.00051   0.00000  -0.00215  -0.00215   1.02993
    D9       -2.40448   0.00040   0.00000   0.00916   0.00916  -2.39532
   D10        3.03140  -0.00037   0.00000  -0.00696  -0.00696   3.02444
         Item               Value     Threshold  Converged?
 Maximum Force            0.001865     0.000450     NO 
 RMS     Force            0.000706     0.000300     NO 
 Maximum Displacement     0.009163     0.001800     NO 
 RMS     Displacement     0.002829     0.001200     NO 
 Predicted change in Energy=-6.442738D-06
 GradGradGradGradGradGradGradGradGradGradGradGradGradGradGradGradGradGrad

 ---------------------------------------------------------------------------------------------------
                            Z-MATRIX (ANGSTROMS AND DEGREES)
   CD    Cent   Atom    N1       Length/X        N2       Alpha/Y        N3        Beta/Z          J
 ---------------------------------------------------------------------------------------------------
      1      1  H 
      2      2  C        1   1.078484(     1)
      3      3  C        2   1.392605(     2)      1  126.990(    10)
      4      4  C        2   1.397045(     3)      1  126.332(    11)      3  180.427(    18)      0
      5      5  H        3   1.079558(     4)      2  125.930(    12)      1   -1.361(    19)      0
      6      6  H        4   1.293828(     5)      2  114.426(    13)      1  121.593(    20)      0
      7      7  C        3   1.393583(     6)      2  107.570(    14)      5 -177.303(    21)      0
      8      8  N        4   1.459457(     7)      2  109.465(    15)      6   59.011(    22)      0
      9      9  H        4   1.079118(     8)      2  129.630(    16)      6 -137.242(    23)      0
     10     10  H        7   1.081065(     9)      3  127.740(    17)      2  173.287(    24)      0
 ---------------------------------------------------------------------------------------------------
                         Z-Matrix orientation:                         
 ---------------------------------------------------------------------
 Center     Atomic      Atomic             Coordinates (Angstroms)
 Number     Number       Type             X           Y           Z
 ---------------------------------------------------------------------
      1          1           0        0.000000    0.000000    0.000000
      2          6           0        0.000000    0.000000    1.078484
      3          6           0        1.112330    0.000000    1.916381
      4          6           0       -1.125419   -0.008381    1.906191
      5          1           0        2.144127   -0.020769    1.599507
      6          1           0       -1.183324   -1.012272    2.720341
      7          6           0        0.649194   -0.030966    3.230390
      8          7           0       -0.702098    0.009262    3.302795
      9          1           0       -2.155698    0.208141    1.669255
     10          1           0        1.231389   -0.139596    4.134796
 ---------------------------------------------------------------------
                    Distance matrix (angstroms):
                    1          2          3          4          5
     1  H    0.000000
     2  C    1.078484   0.000000
     3  C    2.215805   1.392605   0.000000
     4  C    2.213640   1.397045   2.237787   0.000000
     5  H    2.675095   2.206621   1.079558   3.283921   0.000000
     6  H    3.134518   2.262884   2.634592   1.293828   3.648462
     7  C    3.295122   2.247913   1.393583   2.214332   2.212399
     8  N    3.376608   2.332506   2.283501   1.459457   3.317091
     9  H    2.734368   2.244853   3.283961   1.079118   4.306479
    10  H    4.316520   3.298007   2.225989   3.246296   2.697203
                    6          7          8          9         10
     6  H    0.000000
     7  C    2.140381   0.000000
     8  N    1.270575   1.353829   0.000000
     9  H    1.881409   3.218964   2.195667   0.000000
    10  H    2.931396   1.081065   2.110156   4.203828   0.000000
 Symmetry turned off by external request.
 Stoichiometry    C4H5N
 Framework group  C1[X(C4H5N)]
 Deg. of freedom    24
 Full point group                 C1      NOp   1
 Rotational constants (GHZ):           9.1991834           8.8347968           4.5939322
 Standard basis: def2TZVP (5D, 7F)
 The following finite field(s) will be applied:
 An electric field of              0.0013  0.0034  0.0093
   185 basis functions,   295 primitive gaussians,   210 cartesian basis functions
    18 alpha electrons       18 beta electrons
       nuclear repulsion energy       160.5063914518 Hartrees.
 NAtoms=   10 NActive=   10 NUniq=   10 SFac= 1.00D+00 NAtFMM=   60 NAOKFM=F Big=F
 Integral buffers will be    131072 words long.
 Raffenetti 2 integral format.
 Two-electron integral symmetry is turned off.
 One-electron integrals computed using PRISM.
   1 Symmetry operations used in ECPInt.
 ECPInt:  NShTT=    2850 NPrTT=    8640 LenC2=    2843 LenP2D=    7478.
 LDataN:  DoStor=T MaxTD1= 6 Len=  172
 NBasis=   185 RedAO= T EigKep=  5.72D-05  NBF=   185
 NBsUse=   185 1.00D-06 EigRej= -1.00D+00 NBFU=   185
 The nuclear repulsion energy is now       161.9382119565 hartrees.
 Initial guess from the checkpoint file:  "checkpoint.chk"
 B after Tr=    -0.001835    0.003661    0.000156
         Rot=    0.999999   -0.000990   -0.000582   -0.000710 Ang=  -0.15 deg.
 Keep R1 ints in memory in canonical form, NReq=160464061.
 Requested convergence on RMS density matrix=1.00D-08 within 128 cycles.
 Requested convergence on MAX density matrix=1.00D-06.
 Requested convergence on             energy=1.00D-06.
 No special actions if energy rises.
 SCF Done:  E(RB3LYP) =  -210.184014174     A.U. after    8 cycles
            NFock=  8  Conv=0.66D-08     -V/T= 2.0052
   1 Symmetry operations used in ECPInt.
 ECPInt:  NShTT=    2850 NPrTT=    8640 LenC2=    2843 LenP2D=    7478.
 LDataN:  DoStor=T MaxTD1= 7 Len=  274
 Calling FoFJK, ICntrl=      2127 FMM=F ISym2X=0 I1Cent= 0 IOpClX= 0 NMat=1 NMatS=1 NMatT=0.
 -------------------------------------------------------------------
 Center     Atomic                   Forces (Hartrees/Bohr)
 Number     Number              X              Y              Z
 -------------------------------------------------------------------
      1        1          -0.000691502   -0.000187419   -0.000000091
      2        6           0.000694312    0.000443458   -0.000000247
      3        6           0.000000207   -0.000253894   -0.000001135
      4        6          -0.000007441   -0.000000419   -0.000001911
      5        1           0.000000103   -0.000000261   -0.000000158
      6        1          -0.000001750    0.000000996    0.000001055
      7        6           0.000001052    0.000000358    0.000003330
      8        7           0.000004528   -0.000002522    0.000001001
      9        1          -0.000000606   -0.000000707   -0.000002198
     10        1           0.000001097    0.000000411    0.000000355
 -------------------------------------------------------------------
 Cartesian Forces:  Max     0.000694312 RMS     0.000204662
 -----------------------------------------------------------------------------------------------
                       Internal Coordinate Forces (Hartree/Bohr or radian)
  Cent   Atom   N1       Length/X         N2         Alpha/Y        N3         Beta/Z          J
 -----------------------------------------------------------------------------------------------
      1  H 
      2  C        1   0.000000(     1)
      3  C        2   0.000003(     2)      1  -0.000009(    10)
      4  C        2   0.000003(     3)      1  -0.000008(    11)      3   0.000002(    18)     0
      5  H        3   0.000000(     4)      2  -0.000000(    12)      1  -0.000003(    19)     0
      6  H        4  -0.000000(     5)      2   0.000005(    13)      1  -0.000004(    20)     0
      7  C        3   0.000003(     6)      2   0.000010(    14)      5  -0.000002(    21)     0
      8  N        4   0.000002(     7)      2  -0.000011(    15)      6  -0.000007(    22)     0
      9  H        4   0.000001(     8)      2  -0.000004(    16)      6   0.000002(    23)     0
     10  H        7   0.000001(     9)      3  -0.000001(    17)      2   0.000001(    24)     0
 -----------------------------------------------------------------------------------------------
 Internal  Forces:  Max     0.000011075 RMS     0.000004720

 GradGradGradGradGradGradGradGradGradGradGradGradGradGradGradGradGradGrad
 Berny optimization.
 Search for a saddle point.
 Step number   2 out of a maximum of   34
 All quantities printed in internal units (Hartrees-Bohrs-Radians)
 Swapping is turned off.
 Update second derivatives using D2CorN and points    1    2
 ITU=  0  0
     Eigenvalues ---   -0.23882   0.01644   0.03622   0.04266   0.05535
     Eigenvalues ---    0.10042   0.12410   0.17567   0.20543   0.21981
     Eigenvalues ---    0.23258   0.28710   0.33923   0.36023   0.36283
     Eigenvalues ---    0.36849   0.36885   0.41236   0.47523   0.49832
     Eigenvalues ---    0.64513   2.12867   2.89482  21.67923
 Eigenvectors required to have negative eigenvalues:
                          D8        R6        D6        R8        R4
   1                    0.66018  -0.53048  -0.33178   0.18306   0.15249
                          D5        A6        A8        D4        R3
   1                   -0.13824  -0.12580  -0.12523  -0.12274  -0.11960
 RFO step:  Lambda0=4.263867037D-12 Lambda= 0.00000000D+00.
 Linear search not attempted -- option 19 set.
 Variable       Old X    -DE/DX   Delta X   Delta X   Delta X     New X
                                 (Linear)    (Quad)   (Total)
    R2        2.03804   0.00000   0.00000   0.00000   0.00000   2.03804
    R3        2.63164   0.00000   0.00000  -0.00000  -0.00000   2.63164
    R4        2.64003   0.00000   0.00000   0.00001   0.00001   2.64004
    R5        2.04007   0.00000   0.00000   0.00000   0.00000   2.04007
    R6        2.44498  -0.00000   0.00000  -0.00000  -0.00000   2.44498
    R7        2.63349   0.00000   0.00000   0.00000   0.00000   2.63350
    R8        2.75797   0.00000   0.00000   0.00002   0.00002   2.75799
    R9        2.03924   0.00000   0.00000   0.00000   0.00000   2.03924
   R10        2.04292   0.00000   0.00000   0.00000   0.00000   2.04292
    A3        2.21639  -0.00001   0.00000  -0.00001  -0.00001   2.21638
    A4        2.20492  -0.00001   0.00000   0.00000   0.00000   2.20492
    A5        2.19790  -0.00000   0.00000  -0.00000  -0.00000   2.19789
    A6        1.99712   0.00001   0.00000   0.00001   0.00001   1.99713
    A7        1.87745   0.00001   0.00000   0.00000   0.00000   1.87745
    A8        1.91052  -0.00001   0.00000  -0.00001  -0.00001   1.91050
    A9        2.26247  -0.00000   0.00000  -0.00001  -0.00001   2.26246
   A10        2.22948  -0.00000   0.00000  -0.00000  -0.00000   2.22948
    D4        3.14904   0.00000   0.00000   0.00007   0.00007   3.14911
    D5       -0.02376  -0.00000   0.00000   0.00005   0.00005  -0.02371
    D6        2.12219  -0.00000   0.00000  -0.00004  -0.00004   2.12215
    D7       -3.09452  -0.00000   0.00000   0.00000   0.00000  -3.09452
    D8        1.02993  -0.00001   0.00000  -0.00000  -0.00000   1.02993
    D9       -2.39532   0.00000   0.00000  -0.00000  -0.00000  -2.39532
   D10        3.02444   0.00000   0.00000   0.00002   0.00002   3.02445
         Item               Value     Threshold  Converged?
 Maximum Force            0.000011     0.000450     YES
 RMS     Force            0.000005     0.000300     YES
 Maximum Displacement     0.000072     0.001800     YES
 RMS     Displacement     0.000021     0.001200     YES
 Predicted change in Energy=-3.136762D-10
 Optimization completed.
    -- Stationary point found.
                       ----------------------------
                       !   Optimized Parameters   !
                       ! (Angstroms and Degrees)  !
 ----------------------                            ----------------------
 !      Name          Value   Derivative information (Atomic Units)     !
 ------------------------------------------------------------------------
 !       R2          1.0785   -DE/DX =    0.0                           !
 !       R3          1.3926   -DE/DX =    0.0                           !
 !       R4          1.397    -DE/DX =    0.0                           !
 !       R5          1.0796   -DE/DX =    0.0                           !
 !       R6          1.2938   -DE/DX =    0.0                           !
 !       R7          1.3936   -DE/DX =    0.0                           !
 !       R8          1.4595   -DE/DX =    0.0                           !
 !       R9          1.0791   -DE/DX =    0.0                           !
 !       R10         1.0811   -DE/DX =    0.0                           !
 !       A3        126.99     -DE/DX =    0.0                           !
 !       A4        126.3324   -DE/DX =    0.0                           !
 !       A5        125.9301   -DE/DX =    0.0                           !
 !       A6        114.4264   -DE/DX =    0.0                           !
 !       A7        107.57     -DE/DX =    0.0                           !
 !       A8        109.4645   -DE/DX =    0.0                           !
 !       A9        129.6297   -DE/DX =    0.0                           !
 !       A10       127.7398   -DE/DX =    0.0                           !
 !       D4        180.4267   -DE/DX =    0.0                           !
 !       D5         -1.3614   -DE/DX =    0.0                           !
 !       D6        121.5927   -DE/DX =    0.0                           !
 !       D7       -177.303    -DE/DX =    0.0                           !
 !       D8         59.0107   -DE/DX =    0.0                           !
 !       D9       -137.2417   -DE/DX =    0.0                           !
 !       D10       173.2875   -DE/DX =    0.0                           !
 ------------------------------------------------------------------------
 GradGradGradGradGradGradGradGradGradGradGradGradGradGradGradGradGradGrad

 ---------------------------------------------------------------------------------------------------
                            Z-MATRIX (ANGSTROMS AND DEGREES)
   CD    Cent   Atom    N1       Length/X        N2       Alpha/Y        N3        Beta/Z          J
 ---------------------------------------------------------------------------------------------------
      1      1  H 
      2      2  C        1   1.078484(     1)
      3      3  C        2   1.392605(     2)      1  126.990(    10)
      4      4  C        2   1.397045(     3)      1  126.332(    11)      3  180.427(    18)      0
      5      5  H        3   1.079558(     4)      2  125.930(    12)      1   -1.361(    19)      0
      6      6  H        4   1.293828(     5)      2  114.426(    13)      1  121.593(    20)      0
      7      7  C        3   1.393583(     6)      2  107.570(    14)      5 -177.303(    21)      0
      8      8  N        4   1.459457(     7)      2  109.465(    15)      6   59.011(    22)      0
      9      9  H        4   1.079118(     8)      2  129.630(    16)      6 -137.242(    23)      0
     10     10  H        7   1.081065(     9)      3  127.740(    17)      2  173.287(    24)      0
 ---------------------------------------------------------------------------------------------------
                         Z-Matrix orientation:                         
 ---------------------------------------------------------------------
 Center     Atomic      Atomic             Coordinates (Angstroms)
 Number     Number       Type             X           Y           Z
 ---------------------------------------------------------------------
      1          1           0        0.000000    0.000000    0.000000
      2          6           0        0.000000    0.000000    1.078484
      3          6           0        1.112330    0.000000    1.916381
      4          6           0       -1.125419   -0.008381    1.906191
      5          1           0        2.144127   -0.020769    1.599507
      6          1           0       -1.183324   -1.012272    2.720341
      7          6           0        0.649194   -0.030966    3.230390
      8          7           0       -0.702098    0.009262    3.302795
      9          1           0       -2.155698    0.208141    1.669255
     10          1           0        1.231389   -0.139596    4.134796
 ---------------------------------------------------------------------
                    Distance matrix (angstroms):
                    1          2          3          4          5
     1  H    0.000000
     2  C    1.078484   0.000000
     3  C    2.215805   1.392605   0.000000
     4  C    2.213640   1.397045   2.237787   0.000000
     5  H    2.675095   2.206621   1.079558   3.283921   0.000000
     6  H    3.134518   2.262884   2.634592   1.293828   3.648462
     7  C    3.295122   2.247913   1.393583   2.214332   2.212399
     8  N    3.376608   2.332506   2.283501   1.459457   3.317091
     9  H    2.734368   2.244853   3.283961   1.079118   4.306479
    10  H    4.316520   3.298007   2.225989   3.246296   2.697203
                    6          7          8          9         10
     6  H    0.000000
     7  C    2.140381   0.000000
     8  N    1.270575   1.353829   0.000000
     9  H    1.881409   3.218964   2.195667   0.000000
    10  H    2.931396   1.081065   2.110156   4.203828   0.000000
 Symmetry turned off by external request.
 Stoichiometry    C4H5N
 Framework group  C1[X(C4H5N)]
 Deg. of freedom    24
 Full point group                 C1      NOp   1
 Rotational constants (GHZ):           9.1991834           8.8347968           4.5939322
 1\1\GINC-BHC0108\FTS\RB3LYP\def2TZVP\C4H5N1\DHANAWAY\10-Jun-2022\1\\# 
 Opt=(TS, CalcFC, noeigentest, Z-matrix, MaxStep=10) geom=allcheckpoint
  guess=read Field=read NoSymm B3LYP/Def2TZVP freq=noraman pop=none\\ts
 _zmat_initalOpt\\0,1\H\C,1,R2\C,2,R3,1,A3\C,2,R4,1,A4,3,D4,0\H,3,R5,2,
 A5,1,D5,0\H,4,R6,2,A6,1,D6,0\C,3,R7,2,A7,5,D7,0\N,4,R8,2,A8,6,D8,0\H,4
 ,R9,2,A9,6,D9,0\H,7,R10,3,A10,2,D10,0\\R2=1.07848409\R3=1.39260467\R4=
 1.3970452\R5=1.07955828\R6=1.29382758\R7=1.39358323\R8=1.45945671\R9=1
 .07911797\R10=1.08106481\A3=126.99001285\A4=126.33244077\A5=125.930129
 89\A6=114.42641464\A7=107.5700236\A8=109.46453382\A9=129.62971973\A10=
 127.73983002\D4=180.42669515\D5=-1.36142209\D6=121.59267986\D7=-177.30
 30034\D8=59.0106968\D9=-137.2416866\D10=173.28748894\\Version=ES64L-G1
 6RevA.03\HF=-210.1840142\RMSD=6.635e-09\RMSF=2.047e-04\Dipole=0.004488
 2,-0.3910659,-1.0546835\PG=C01 [X(C4H5N1)]\\@


 TERENCE, THIS IS STUPID STUFF:
 YOU EAT YOUR VICTUALS FAST ENOUGH;
 THERE CAN'T BE MUCH AMISS, 'TIS CLEAR
 TO SEE THE RATE YOU DRINK YOUR BEER.
 BUT OH, GOOD LORD, THE VERSE YOU MAKE,
 IT GIVES A CHAP THE BELLY-ACHE.
 THE COW, THE OLD COW, SHE IS DEAD;
 IT SLEEPS WELL, THE HORNED HEAD:
 WE POOR LADS, 'TIS OUR TURN NOW
 TO HEAR SUCH TUNES AS KILLED THE COW.
 PRETTY FRIENDSHIP 'TIS TO RHYME
 YOUR FRIENDS TO DEATH BEFORE THEIR TIME.
 MOPING, MELANCHOLY MAD:
 COME PIPE A TUNE TO DANCE TO, LAD.

     -- A. E. HOUSMAN
 Job cpu time:       0 days  0 hours 21 minutes  5.7 seconds.
 Elapsed time:       0 days  0 hours  1 minutes 53.2 seconds.
 File lengths (MBytes):  RWF=     34 Int=      0 D2E=      0 Chk=     32 Scr=      1
 Normal termination of Gaussian 16 at Fri Jun 10 23:45:02 2022.
 Link1:  Proceeding to internal job step number  2.
 --------------------------------------------------------------------
 #N Geom=AllCheck Guess=TCheck SCRF=Check GenChk RB3LYP/def2TZVP Freq
 --------------------------------------------------------------------
 1/5=1,8=10,10=4,11=1,29=7,30=1,38=1,40=1/1,3;
 2/12=2,15=1,40=1/2;
 3/5=44,7=101,11=2,14=-4,25=1,30=1,70=2,71=2,74=-5,116=1,140=1/1,2,3;
 4/5=101/1;
 5/5=2,38=6,98=1/2;
 8/6=4,10=90,11=11/1;
 11/6=1,8=1,9=11,15=111,16=1,31=1/1,2,10;
 10/6=1,31=1/2;
 7/8=1,10=1,25=1,30=1/1,2,3,16;
 1/5=1,8=10,10=4,11=1,30=1/3;
 99//99;
 Structure from the checkpoint file:  "checkpoint.chk"
 -----------------
 ts_zmat_initalOpt
 -----------------
 Charge =  0 Multiplicity = 1
 Z-Matrix found in chk file.
 H
 C,1,R2
 C,2,R3,1,A3
 C,2,R4,1,A4,3,D4,0
 H,3,R5,2,A5,1,D5,0
 H,4,R6,2,A6,1,D6,0
 C,3,R7,2,A7,5,D7,0
 N,4,R8,2,A8,6,D8,0
 H,4,R9,2,A9,6,D9,0
 H,7,R10,3,A10,2,D10,0
      Variables:
 R2=1.07848409
 R3=1.39260467
 R4=1.3970452
 R5=1.07955828
 R6=1.29382758
 R7=1.39358323
 R8=1.45945671
 R9=1.07911797
 R10=1.08106481
 A3=126.99001285
 A4=126.33244077
 A5=125.93012989
 A6=114.42641464
 A7=107.5700236
 A8=109.46453382
 A9=129.62971973
 A10=127.73983002
 D4=180.42669515
 D5=-1.36142209
 D6=121.59267986
 D7=-177.3030034
 D8=59.0106968
 D9=-137.2416866
 D10=173.28748894
 Recover connectivity data from disk.

 GradGradGradGradGradGradGradGradGradGradGradGradGradGradGradGradGradGrad
 Berny optimization.
 Initialization pass.
                       ----------------------------
                       !    Initial Parameters    !
                       ! (Angstroms and Degrees)  !
 ----------------------                            ----------------------
 !      Name          Value   Derivative information (Atomic Units)     !
 ------------------------------------------------------------------------
 !       R2          1.0785   calculate D2E/DX2 analytically            !
 !       R3          1.3926   calculate D2E/DX2 analytically            !
 !       R4          1.397    calculate D2E/DX2 analytically            !
 !       R5          1.0796   calculate D2E/DX2 analytically            !
 !       R6          1.2938   calculate D2E/DX2 analytically            !
 !       R7          1.3936   calculate D2E/DX2 analytically            !
 !       R8          1.4595   calculate D2E/DX2 analytically            !
 !       R9          1.0791   calculate D2E/DX2 analytically            !
 !       R10         1.0811   calculate D2E/DX2 analytically            !
 !       A3        126.99     calculate D2E/DX2 analytically            !
 !       A4        126.3324   calculate D2E/DX2 analytically            !
 !       A5        125.9301   calculate D2E/DX2 analytically            !
 !       A6        114.4264   calculate D2E/DX2 analytically            !
 !       A7        107.57     calculate D2E/DX2 analytically            !
 !       A8        109.4645   calculate D2E/DX2 analytically            !
 !       A9        129.6297   calculate D2E/DX2 analytically            !
 !       A10       127.7398   calculate D2E/DX2 analytically            !
 !       D4        180.4267   calculate D2E/DX2 analytically            !
 !       D5         -1.3614   calculate D2E/DX2 analytically            !
 !       D6        121.5927   calculate D2E/DX2 analytically            !
 !       D7       -177.303    calculate D2E/DX2 analytically            !
 !       D8         59.0107   calculate D2E/DX2 analytically            !
 !       D9       -137.2417   calculate D2E/DX2 analytically            !
 !       D10       173.2875   calculate D2E/DX2 analytically            !
 ------------------------------------------------------------------------
 Trust Radius=1.00D-01 FncErr=1.00D-07 GrdErr=1.00D-07 EigMax=2.50D+02 EigMin=1.00D-04
 Number of steps in this run=      2 maximum allowed number of steps=      2.
 Search for a saddle point of order  1.
 GradGradGradGradGradGradGradGradGradGradGradGradGradGradGradGradGradGrad

                          Input orientation:                          
 ---------------------------------------------------------------------
 Center     Atomic      Atomic             Coordinates (Angstroms)
 Number     Number       Type             X           Y           Z
 ---------------------------------------------------------------------
      1          1           0        0.000000    0.000000    0.000000
      2          6           0        0.000000    0.000000    1.078484
      3          6           0        1.112330    0.000000    1.916381
      4          6           0       -1.125419   -0.008381    1.906191
      5          1           0        2.144127   -0.020769    1.599507
      6          1           0       -1.183324   -1.012272    2.720341
      7          6           0        0.649194   -0.030966    3.230390
      8          7           0       -0.702098    0.009262    3.302795
      9          1           0       -2.155698    0.208141    1.669255
     10          1           0        1.231389   -0.139596    4.134796
 ---------------------------------------------------------------------
                    Distance matrix (angstroms):
                    1          2          3          4          5
     1  H    0.000000
     2  C    1.078484   0.000000
     3  C    2.215805   1.392605   0.000000
     4  C    2.213640   1.397045   2.237787   0.000000
     5  H    2.675095   2.206621   1.079558   3.283921   0.000000
     6  H    3.134518   2.262884   2.634592   1.293828   3.648462
     7  C    3.295122   2.247913   1.393583   2.214332   2.212399
     8  N    3.376608   2.332506   2.283501   1.459457   3.317091
     9  H    2.734368   2.244853   3.283961   1.079118   4.306479
    10  H    4.316520   3.298007   2.225989   3.246296   2.697203
                    6          7          8          9         10
     6  H    0.000000
     7  C    2.140381   0.000000
     8  N    1.270575   1.353829   0.000000
     9  H    1.881409   3.218964   2.195667   0.000000
    10  H    2.931396   1.081065   2.110156   4.203828   0.000000
 Symmetry turned off by external request.
 Stoichiometry    C4H5N
 Framework group  C1[X(C4H5N)]
 Deg. of freedom    24
 Full point group                 C1      NOp   1
 Rotational constants (GHZ):           9.1991834           8.8347968           4.5939322
 Standard basis: def2TZVP (5D, 7F)
 The following finite field(s) will be applied:
 An electric field of              0.0013  0.0034  0.0093
   185 basis functions,   295 primitive gaussians,   210 cartesian basis functions
    18 alpha electrons       18 beta electrons
       nuclear repulsion energy       160.5063914518 Hartrees.
 NAtoms=   10 NActive=   10 NUniq=   10 SFac= 1.00D+00 NAtFMM=   60 NAOKFM=F Big=F
 Integral buffers will be    131072 words long.
 Raffenetti 2 integral format.
 Two-electron integral symmetry is turned off.
 One-electron integrals computed using PRISM.
   1 Symmetry operations used in ECPInt.
 ECPInt:  NShTT=    2850 NPrTT=    8640 LenC2=    2843 LenP2D=    7478.
 LDataN:  DoStor=T MaxTD1= 6 Len=  172
 NBasis=   185 RedAO= T EigKep=  5.72D-05  NBF=   185
 NBsUse=   185 1.00D-06 EigRej= -1.00D+00 NBFU=   185
 The nuclear repulsion energy is now       161.9382119565 hartrees.
 Initial guess from the checkpoint file:  "checkpoint.chk"
 B after Tr=     0.000000    0.000000    0.000000
         Rot=    1.000000    0.000000    0.000000    0.000000 Ang=   0.00 deg.
 Keep R1 ints in memory in canonical form, NReq=160464061.
 Requested convergence on RMS density matrix=1.00D-08 within 128 cycles.
 Requested convergence on MAX density matrix=1.00D-06.
 Requested convergence on             energy=1.00D-06.
 No special actions if energy rises.
 SCF Done:  E(RB3LYP) =  -210.184014174     A.U. after    1 cycles
            NFock=  1  Conv=0.50D-08     -V/T= 2.0052
 DoSCS=F DFT=T ScalE2(SS,OS)=  1.000000  1.000000
 Range of M.O.s used for correlation:     1   185
 NBasis=   185 NAE=    18 NBE=    18 NFC=     0 NFV=     0
 NROrb=    185 NOA=    18 NOB=    18 NVA=   167 NVB=   167

 **** Warning!!: The largest alpha MO coefficient is  0.24548530D+02

   1 Symmetry operations used in ECPInt.
 ECPInt:  NShTT=    2850 NPrTT=    8640 LenC2=    2843 LenP2D=    7478.
 LDataN:  DoStor=T MaxTD1= 7 Len=  274
 Symmetrizing basis deriv contribution to polar:
 IMax=3 JMax=2 DiffMx= 0.00D+00
 G2DrvN: will do    11 centers at a time, making    1 passes.
 Calling FoFCou, ICntrl=  3107 FMM=F I1Cent=   0 AccDes= 0.00D+00.
 End of G2Drv F.D. properties file   721 does not exist.
 End of G2Drv F.D. properties file   722 does not exist.
 End of G2Drv F.D. properties file   788 does not exist.
          IDoAtm=1111111111
          Differentiating once with respect to electric field.
                with respect to dipole field.
          Differentiating once with respect to nuclear coordinates.
 Keep R1 ints in memory in canonical form, NReq=160431867.
          There are    33 degrees of freedom in the 1st order CPHF.  IDoFFX=6 NUNeed=     3.
     30 vectors produced by pass  0 Test12= 9.11D-15 3.03D-09 XBig12= 6.51D+01 4.55D+00.
 AX will form    30 AO Fock derivatives at one time.
     30 vectors produced by pass  1 Test12= 9.11D-15 3.03D-09 XBig12= 1.46D+01 5.65D-01.
     30 vectors produced by pass  2 Test12= 9.11D-15 3.03D-09 XBig12= 1.35D-01 7.01D-02.
     30 vectors produced by pass  3 Test12= 9.11D-15 3.03D-09 XBig12= 4.49D-04 3.18D-03.
     30 vectors produced by pass  4 Test12= 9.11D-15 3.03D-09 XBig12= 8.35D-07 1.19D-04.
     27 vectors produced by pass  5 Test12= 9.11D-15 3.03D-09 XBig12= 1.52D-09 6.72D-06.
      7 vectors produced by pass  6 Test12= 9.11D-15 3.03D-09 XBig12= 1.67D-12 1.95D-07.
      2 vectors produced by pass  7 Test12= 9.11D-15 3.03D-09 XBig12= 1.86D-15 6.94D-09.
 InvSVY:  IOpt=1 It=  1 EMax= 3.55D-15
 Solved reduced A of dimension   186 with    33 vectors.
 Isotropic polarizability for W=    0.000000       50.45 Bohr**3.
 End of Minotr F.D. properties file   721 does not exist.
 End of Minotr F.D. properties file   722 does not exist.
 End of Minotr F.D. properties file   788 does not exist.
   1 Symmetry operations used in ECPInt.
 ECPInt:  NShTT=    2850 NPrTT=    8640 LenC2=    2843 LenP2D=    7478.
 LDataN:  DoStor=T MaxTD1= 8 Len=  415
 Calling FoFJK, ICntrl=    100127 FMM=F ISym2X=0 I1Cent= 0 IOpClX= 0 NMat=1 NMatS=1 NMatT=0.
 Full mass-weighted force constant matrix:
 Low frequencies ----1484.4089   -7.5945   -0.0004    0.0007    0.0007   18.3876
 Low frequencies ---   29.8690  590.8624  639.2237
 ******    1 imaginary frequencies (negative Signs) ****** 
 Diagonal vibrational polarizability:
        1.7816162       5.2253687       2.7102817
 Harmonic frequencies (cm**-1), IR intensities (KM/Mole), Raman scattering
 activities (A**4/AMU), depolarization ratios for plane and unpolarized
 incident light, reduced masses (AMU), force constants (mDyne/A),
 and normal coordinates:
                      1                      2                      3
                      A                      A                      A
 Frequencies --  -1484.4058               590.8611               639.2227
 Red. masses --      1.2139                 2.2648                 3.8851
 Frc consts  --      1.5759                 0.4658                 0.9353
 IR Inten    --     99.3720                 2.0905                 3.5035
  Atom  AN      X      Y      Z        X      Y      Z        X      Y      Z
     1   1    -0.01   0.00   0.00     0.00  -0.31  -0.00     0.04   0.51   0.01
     2   6    -0.03   0.00   0.00     0.01  -0.20  -0.00     0.01   0.15   0.01
     3   6     0.01  -0.00   0.03     0.00   0.22  -0.00     0.00   0.00  -0.00
     4   6     0.02   0.06  -0.05     0.00   0.05   0.00    -0.02  -0.31  -0.02
     5   1     0.00   0.01   0.01     0.01   0.56   0.01     0.00   0.14  -0.01
     6   1     0.23   0.14   0.94    -0.37   0.15   0.12    -0.17   0.09   0.43
     7   6     0.04  -0.01  -0.01    -0.00  -0.15  -0.01    -0.01  -0.19  -0.00
     8   7    -0.05  -0.05  -0.04     0.01   0.03   0.00     0.02   0.30  -0.02
     9   1    -0.03  -0.16  -0.01     0.09   0.40  -0.04    -0.01  -0.32  -0.07
    10   1     0.00   0.01   0.00     0.00  -0.36  -0.04    -0.04  -0.38   0.00
                      4                      5                      6
                      A                      A                      A
 Frequencies --    755.6790               831.0122               874.1765
 Red. masses --      1.1080                 1.4395                 4.6696
 Frc consts  --      0.3728                 0.5857                 2.1025
 IR Inten    --     94.3982                 2.7352                12.4988
  Atom  AN      X      Y      Z        X      Y      Z        X      Y      Z
     1   1    -0.02   0.49   0.01     0.02  -0.38   0.02    -0.04   0.17  -0.32
     2   6     0.00  -0.03   0.01    -0.01   0.04   0.02     0.05  -0.01  -0.31
     3   6     0.01  -0.07  -0.00     0.01   0.02   0.01    -0.18  -0.01  -0.03
     4   6     0.00  -0.03   0.01    -0.02   0.06   0.01     0.24   0.03  -0.03
     5   1     0.02   0.39  -0.01    -0.01   0.12  -0.04    -0.06   0.15   0.35
     6   1    -0.28   0.02   0.12     0.10  -0.01  -0.16     0.06   0.09   0.05
     7   6    -0.00   0.00  -0.00     0.01  -0.17  -0.00    -0.08  -0.07   0.02
     8   7     0.01  -0.03  -0.03     0.02   0.04  -0.04    -0.07   0.02   0.32
     9   1     0.09   0.42   0.05    -0.12  -0.41   0.03     0.21  -0.28  -0.12
    10   1    -0.01   0.55   0.07    -0.03   0.75   0.13     0.33   0.32  -0.20
                      7                      8                      9
                      A                      A                      A
 Frequencies --    886.2613               892.2403               939.7361
 Red. masses --      1.7019                 2.5183                 2.1657
 Frc consts  --      0.7876                 1.1812                 1.1268
 IR Inten    --     11.9172                 6.2590                18.6107
  Atom  AN      X      Y      Z        X      Y      Z        X      Y      Z
     1   1     0.17  -0.43  -0.09     0.18   0.37  -0.08    -0.28  -0.53  -0.05
     2   6    -0.02   0.09  -0.09    -0.06  -0.08  -0.08     0.01   0.10  -0.05
     3   6    -0.11   0.05   0.05    -0.17  -0.05   0.09    -0.01  -0.10  -0.04
     4   6     0.01  -0.09  -0.04    -0.01   0.07  -0.05     0.15  -0.01   0.18
     5   1    -0.13  -0.45   0.04    -0.21   0.46  -0.07     0.04   0.54   0.07
     6   1    -0.18   0.01   0.18     0.27  -0.03  -0.24    -0.12  -0.09   0.08
     7   6     0.03  -0.01   0.09     0.10   0.02   0.17    -0.07   0.04   0.01
     8   7     0.07  -0.02  -0.05     0.12   0.02  -0.11    -0.04  -0.00  -0.12
     9   1     0.08   0.56   0.25    -0.15  -0.36   0.15     0.12  -0.05   0.28
    10   1     0.07   0.19   0.09     0.01  -0.30   0.19    -0.22  -0.25   0.06
                     10                     11                     12
                      A                      A                      A
 Frequencies --    955.9300              1067.9545              1094.2463
 Red. masses --      1.8438                 1.3711                 1.2400
 Frc consts  --      0.9927                 0.9214                 0.8748
 IR Inten    --     21.2258                12.1716                 1.2657
  Atom  AN      X      Y      Z        X      Y      Z        X      Y      Z
     1   1     0.32  -0.52   0.02     0.20   0.05  -0.05     0.73   0.07  -0.01
     2   6     0.02   0.10   0.02     0.02  -0.01  -0.05     0.09  -0.01  -0.01
     3   6     0.01  -0.12   0.00     0.02  -0.01   0.06    -0.02   0.01  -0.06
     4   6    -0.12  -0.02  -0.13    -0.09   0.01   0.03    -0.01   0.02   0.07
     5   1    -0.01   0.65  -0.09     0.23   0.04   0.74    -0.14  -0.06  -0.43
     6   1    -0.03   0.07   0.03     0.06  -0.00   0.03    -0.20   0.04   0.13
     7   6     0.05   0.04  -0.01    -0.04   0.00  -0.10    -0.05   0.01  -0.02
     8   7     0.01  -0.01   0.11     0.06   0.00  -0.02    -0.02  -0.01   0.01
     9   1    -0.08   0.13  -0.19    -0.20  -0.03   0.46    -0.12  -0.19   0.33
    10   1     0.18  -0.12  -0.11     0.12  -0.02  -0.22    -0.11  -0.01   0.02
                     13                     14                     15
                      A                      A                      A
 Frequencies --   1134.8839              1177.9180              1247.1147
 Red. masses --      2.1657                 1.1522                 1.8123
 Frc consts  --      1.6435                 0.9419                 1.6607
 IR Inten    --      1.8335                26.9927                 2.1469
  Atom  AN      X      Y      Z        X      Y      Z        X      Y      Z
     1   1    -0.30   0.01  -0.19     0.10   0.01   0.01    -0.14   0.02  -0.05
     2   6    -0.01  -0.01  -0.17    -0.00  -0.02   0.01     0.02  -0.00  -0.04
     3   6     0.19   0.01  -0.06     0.00   0.00   0.01     0.07   0.00   0.02
     4   6    -0.11   0.00  -0.05     0.02  -0.03  -0.00    -0.03  -0.00   0.02
     5   1     0.20   0.01  -0.08    -0.05   0.11  -0.19     0.03  -0.03  -0.13
     6   1    -0.01   0.05   0.07     0.78  -0.17  -0.09    -0.27  -0.02  -0.12
     7   6     0.01   0.00   0.13    -0.01  -0.04  -0.02     0.12  -0.01   0.09
     8   7    -0.00  -0.01   0.08    -0.07   0.05   0.01    -0.18   0.01  -0.05
     9   1    -0.22   0.01   0.39     0.05   0.42   0.32    -0.13  -0.10   0.33
    10   1    -0.53  -0.04   0.49    -0.01   0.01  -0.02     0.76  -0.00  -0.31
                     16                     17                     18
                      A                      A                      A
 Frequencies --   1311.4369              1433.6284              1482.5852
 Red. masses --      1.7787                 2.9177                 3.0908
 Frc consts  --      1.8024                 3.5332                 4.0027
 IR Inten    --      2.1249                 8.8643                 2.9269
  Atom  AN      X      Y      Z        X      Y      Z        X      Y      Z
     1   1    -0.55  -0.00   0.09    -0.29   0.01  -0.04     0.01   0.01  -0.23
     2   6     0.08  -0.00   0.08     0.23  -0.00  -0.03    -0.06   0.00  -0.19
     3   6    -0.01  -0.01   0.05    -0.05   0.00  -0.14     0.13  -0.01   0.30
     4   6     0.05   0.00  -0.15    -0.18   0.03   0.11    -0.06  -0.00   0.12
     5   1    -0.15   0.02  -0.37     0.00   0.00   0.01    -0.16   0.00  -0.68
     6   1    -0.11   0.15   0.02     0.42  -0.14   0.30     0.03  -0.08   0.04
     7   6    -0.14   0.01  -0.02    -0.14  -0.02   0.16    -0.10   0.01  -0.09
     8   7     0.09  -0.01   0.02     0.08  -0.01  -0.05     0.07  -0.00  -0.01
     9   1    -0.13  -0.11   0.58    -0.05   0.12  -0.48     0.06   0.04  -0.43
    10   1     0.15  -0.01  -0.21     0.42   0.05  -0.17     0.11   0.01  -0.25
                     19                     20                     21
                      A                      A                      A
 Frequencies --   1511.6000              2181.6270              3195.0075
 Red. masses --      3.5863                 1.0725                 1.0902
 Frc consts  --      4.8281                 3.0075                 6.5568
 IR Inten    --      1.8029                17.8203                22.0626
  Atom  AN      X      Y      Z        X      Y      Z        X      Y      Z
     1   1    -0.57  -0.00  -0.04     0.01   0.00  -0.01     0.00  -0.00  -0.04
     2   6     0.28   0.00  -0.04     0.00   0.00  -0.01     0.00  -0.00   0.00
     3   6    -0.18   0.00   0.12    -0.00  -0.00  -0.00     0.02  -0.00  -0.00
     4   6    -0.11  -0.01   0.06    -0.01  -0.05   0.04    -0.00   0.00   0.00
     5   1    -0.28  -0.01  -0.08    -0.00   0.01  -0.00    -0.27   0.01   0.08
     6   1    -0.07  -0.01  -0.01     0.20   0.96  -0.16     0.00   0.00   0.00
     7   6     0.23   0.00  -0.19    -0.00   0.00   0.01    -0.04   0.01  -0.07
     8   7    -0.08   0.00   0.02    -0.01  -0.03  -0.02     0.00  -0.00  -0.00
     9   1    -0.12   0.02   0.03     0.03   0.01  -0.02     0.04  -0.01   0.01
    10   1    -0.52  -0.01   0.26     0.01   0.01  -0.01     0.51  -0.09   0.80
                     22                     23                     24
                      A                      A                      A
 Frequencies --   3226.8103              3233.2299              3251.2314
 Red. masses --      1.0948                 1.0926                 1.1041
 Frc consts  --      6.7163                 6.7296                 6.8761
 IR Inten    --      6.6130                 0.2286                 2.6233
  Atom  AN      X      Y      Z        X      Y      Z        X      Y      Z
     1   1    -0.00  -0.00   0.41    -0.00  -0.00  -0.33    -0.00  -0.00   0.85
     2   6     0.00   0.00  -0.03     0.00   0.00   0.03     0.00   0.00  -0.08
     3   6    -0.07   0.00   0.02    -0.03   0.00   0.01     0.03  -0.00  -0.00
     4   6     0.02  -0.00   0.00    -0.07   0.02  -0.02    -0.04   0.01  -0.01
     5   1     0.80  -0.01  -0.25     0.34  -0.01  -0.10    -0.26   0.01   0.08
     6   1     0.00   0.00   0.00    -0.01  -0.01  -0.00    -0.00  -0.00   0.00
     7   6    -0.01   0.00  -0.02    -0.00   0.00  -0.01     0.00  -0.00   0.01
     8   7     0.00  -0.00   0.00     0.00   0.00  -0.00     0.00   0.00   0.00
     9   1    -0.20   0.04  -0.05     0.83  -0.18   0.19     0.41  -0.09   0.09
    10   1     0.14  -0.03   0.23     0.03  -0.01   0.04    -0.03   0.01  -0.06

 -------------------
 - Thermochemistry -
 -------------------
 Temperature   298.150 Kelvin.  Pressure   1.00000 Atm.
 Atom     1 has atomic number  1 and mass   1.00783
 Atom     2 has atomic number  6 and mass  12.00000
 Atom     3 has atomic number  6 and mass  12.00000
 Atom     4 has atomic number  6 and mass  12.00000
 Atom     5 has atomic number  1 and mass   1.00783
 Atom     6 has atomic number  1 and mass   1.00783
 Atom     7 has atomic number  6 and mass  12.00000
 Atom     8 has atomic number  7 and mass  14.00307
 Atom     9 has atomic number  1 and mass   1.00783
 Atom    10 has atomic number  1 and mass   1.00783
 Molecular mass:    67.04220 amu.
 Principal axes and moments of inertia in atomic units:
                           1         2         3
     Eigenvalues --   196.18494 204.27648 392.85326
           X           -0.37684   0.92626  -0.00492
           Y           -0.01844  -0.00219   0.99983
           Z            0.92609   0.37687   0.01790
 This molecule is an asymmetric top.
 Rotational symmetry number  1.
 Rotational temperatures (Kelvin)      0.44149     0.42400     0.22047
 Rotational constants (GHZ):           9.19918     8.83480     4.59393
    1 imaginary frequencies ignored.
 Zero-point vibrational energy     202853.1 (Joules/Mol)
                                   48.48306 (Kcal/Mol)
 Warning -- explicit consideration of   1 degrees of freedom as
           vibrations may cause significant error
 Vibrational temperatures:    850.12   919.70  1087.25  1195.64  1257.75
          (Kelvin)           1275.13  1283.73  1352.07  1375.37  1536.55
                             1574.38  1632.84  1694.76  1794.32  1886.87
                             2062.67  2133.11  2174.86  3138.87  4596.90
                             4642.66  4651.90  4677.80
 
 Zero-point correction=                           0.077263 (Hartree/Particle)
 Thermal correction to Energy=                    0.080959
 Thermal correction to Enthalpy=                  0.081903
 Thermal correction to Gibbs Free Energy=         0.050977
 Sum of electronic and zero-point Energies=           -210.106752
 Sum of electronic and thermal Energies=              -210.103055
 Sum of electronic and thermal Enthalpies=            -210.102111
 Sum of electronic and thermal Free Energies=         -210.133037
 
                     E (Thermal)             CV                S
                      KCal/Mol        Cal/Mol-Kelvin    Cal/Mol-Kelvin
 Total                   50.803             13.368             65.089
 Electronic               0.000              0.000              0.000
 Translational            0.889              2.981             38.526
 Rotational               0.889              2.981             24.269
 Vibrational             49.025              7.406              2.294
 Vibration     1          0.948              1.051              0.466
                       Q            Log10(Q)             Ln(Q)
 Total Bot       0.356467D-23        -23.447981        -53.990972
 Total V=0       0.123126D+13         12.090350         27.839059
 Vib (Bot)       0.367824D-35        -35.434360        -81.590629
 Vib (Bot)    1  0.255087D+00         -0.593311         -1.366149
 Vib (V=0)       0.127049D+01          0.103971          0.239402
 Vib (V=0)    1  0.106131D+01          0.025842          0.059505
 Electronic      0.100000D+01          0.000000          0.000000
 Translational   0.215763D+08          7.333976         16.887104
 Rotational      0.449162D+05          4.652403         10.712553
 -------------------------------------------------------------------
 Center     Atomic                   Forces (Hartrees/Bohr)
 Number     Number              X              Y              Z
 -------------------------------------------------------------------
      1        1          -0.000691488   -0.000187414   -0.000000013
      2        6           0.000694143    0.000443460   -0.000000230
      3        6           0.000000254   -0.000253923   -0.000001309
      4        6          -0.000007388   -0.000000390   -0.000001929
      5        1           0.000000130   -0.000000260   -0.000000144
      6        1          -0.000001711    0.000001021    0.000001042
      7        6           0.000001133    0.000000391    0.000003382
      8        7           0.000004216   -0.000002537    0.000000877
      9        1          -0.000000472   -0.000000748   -0.000002153
     10        1           0.000001184    0.000000399    0.000000475
 -------------------------------------------------------------------
 Cartesian Forces:  Max     0.000694143 RMS     0.000204643
 -----------------------------------------------------------------------------------------------
                       Internal Coordinate Forces (Hartree/Bohr or radian)
  Cent   Atom   N1       Length/X         N2         Alpha/Y        N3         Beta/Z          J
 -----------------------------------------------------------------------------------------------
      1  H 
      2  C        1   0.000000(     1)
      3  C        2   0.000004(     2)      1  -0.000010(    10)
      4  C        2   0.000003(     3)      1  -0.000009(    11)      3   0.000002(    18)     0
      5  H        3   0.000000(     4)      2  -0.000000(    12)      1  -0.000003(    19)     0
      6  H        4  -0.000000(     5)      2   0.000005(    13)      1  -0.000004(    20)     0
      7  C        3   0.000003(     6)      2   0.000011(    14)      5  -0.000002(    21)     0
      8  N        4   0.000002(     7)      2  -0.000010(    15)      6  -0.000007(    22)     0
      9  H        4   0.000001(     8)      2  -0.000004(    16)      6   0.000002(    23)     0
     10  H        7   0.000001(     9)      3  -0.000001(    17)      2   0.000001(    24)     0
 -----------------------------------------------------------------------------------------------
 Internal  Forces:  Max     0.000010670 RMS     0.000004860

 GradGradGradGradGradGradGradGradGradGradGradGradGradGradGradGradGradGrad
 Berny optimization.
 Search for a saddle point.
 Step number   1 out of a maximum of    2
 All quantities printed in internal units (Hartrees-Bohrs-Radians)
 Swapping is turned off.
 Second derivative matrix not updated -- analytic derivatives used.
 ITU=  0
     Eigenvalues ---   -0.23857   0.01603   0.03619   0.04251   0.05540
     Eigenvalues ---    0.10042   0.12398   0.17572   0.20532   0.22033
     Eigenvalues ---    0.23243   0.28561   0.33989   0.35941   0.36280
     Eigenvalues ---    0.36844   0.36873   0.41284   0.47570   0.50005
     Eigenvalues ---    0.64500   2.12773   2.89817  21.56678
 Eigenvectors required to have negative eigenvalues:
                          D8        R6        D6        R8        R4
   1                    0.65922  -0.53261  -0.33103   0.18287   0.15187
                          D5        A6        A8        D4        R3
   1                   -0.13793  -0.12685  -0.12403  -0.12342  -0.11945
 Angle between quadratic step and forces=  75.89 degrees.
 Linear search not attempted -- option 19 set.
 Variable       Old X    -DE/DX   Delta X   Delta X   Delta X     New X
                                 (Linear)    (Quad)   (Total)
    R2        2.03804   0.00000   0.00000   0.00000   0.00000   2.03804
    R3        2.63164   0.00000   0.00000  -0.00000  -0.00000   2.63164
    R4        2.64003   0.00000   0.00000   0.00001   0.00001   2.64004
    R5        2.04007   0.00000   0.00000   0.00000   0.00000   2.04007
    R6        2.44498  -0.00000   0.00000  -0.00000  -0.00000   2.44498
    R7        2.63349   0.00000   0.00000   0.00001   0.00001   2.63350
    R8        2.75797   0.00000   0.00000   0.00002   0.00002   2.75799
    R9        2.03924   0.00000   0.00000   0.00000   0.00000   2.03924
   R10        2.04292   0.00000   0.00000   0.00000   0.00000   2.04292
    A3        2.21639  -0.00001   0.00000  -0.00001  -0.00001   2.21638
    A4        2.20492  -0.00001   0.00000   0.00000   0.00000   2.20492
    A5        2.19790  -0.00000   0.00000  -0.00000  -0.00000   2.19789
    A6        1.99712   0.00001   0.00000   0.00001   0.00001   1.99713
    A7        1.87745   0.00001   0.00000   0.00000   0.00000   1.87745
    A8        1.91052  -0.00001   0.00000  -0.00001  -0.00001   1.91050
    A9        2.26247  -0.00000   0.00000  -0.00001  -0.00001   2.26246
   A10        2.22948  -0.00000   0.00000  -0.00000  -0.00000   2.22948
    D4        3.14904   0.00000   0.00000   0.00008   0.00008   3.14912
    D5       -0.02376  -0.00000   0.00000   0.00005   0.00005  -0.02371
    D6        2.12219  -0.00000   0.00000  -0.00005  -0.00005   2.12215
    D7       -3.09452  -0.00000   0.00000  -0.00000  -0.00000  -3.09452
    D8        1.02993  -0.00001   0.00000  -0.00000  -0.00000   1.02993
    D9       -2.39532   0.00000   0.00000  -0.00000  -0.00000  -2.39532
   D10        3.02444   0.00000   0.00000   0.00002   0.00002   3.02445
         Item               Value     Threshold  Converged?
 Maximum Force            0.000011     0.000450     YES
 RMS     Force            0.000005     0.000300     YES
 Maximum Displacement     0.000076     0.001800     YES
 RMS     Displacement     0.000022     0.001200     YES
 Predicted change in Energy=-3.131590D-10
 Optimization completed.
    -- Stationary point found.
                       ----------------------------
                       !   Optimized Parameters   !
                       ! (Angstroms and Degrees)  !
 ----------------------                            ----------------------
 !      Name          Value   Derivative information (Atomic Units)     !
 ------------------------------------------------------------------------
 !       R2          1.0785   -DE/DX =    0.0                           !
 !       R3          1.3926   -DE/DX =    0.0                           !
 !       R4          1.397    -DE/DX =    0.0                           !
 !       R5          1.0796   -DE/DX =    0.0                           !
 !       R6          1.2938   -DE/DX =    0.0                           !
 !       R7          1.3936   -DE/DX =    0.0                           !
 !       R8          1.4595   -DE/DX =    0.0                           !
 !       R9          1.0791   -DE/DX =    0.0                           !
 !       R10         1.0811   -DE/DX =    0.0                           !
 !       A3        126.99     -DE/DX =    0.0                           !
 !       A4        126.3324   -DE/DX =    0.0                           !
 !       A5        125.9301   -DE/DX =    0.0                           !
 !       A6        114.4264   -DE/DX =    0.0                           !
 !       A7        107.57     -DE/DX =    0.0                           !
 !       A8        109.4645   -DE/DX =    0.0                           !
 !       A9        129.6297   -DE/DX =    0.0                           !
 !       A10       127.7398   -DE/DX =    0.0                           !
 !       D4        180.4267   -DE/DX =    0.0                           !
 !       D5         -1.3614   -DE/DX =    0.0                           !
 !       D6        121.5927   -DE/DX =    0.0                           !
 !       D7       -177.303    -DE/DX =    0.0                           !
 !       D8         59.0107   -DE/DX =    0.0                           !
 !       D9       -137.2417   -DE/DX =    0.0                           !
 !       D10       173.2875   -DE/DX =    0.0                           !
 ------------------------------------------------------------------------
 GradGradGradGradGradGradGradGradGradGradGradGradGradGradGradGradGradGrad


 ----------------------------------------------------------------------

 Electric dipole moment (input orientation):
 (Debye = 10**-18 statcoulomb cm , SI units = C m)
                  (au)            (Debye)         (10**-30 SI)
   Tot        0.112486D+01      0.285912D+01      0.953700D+01
   x          0.448401D-02      0.113972D-01      0.380170D-01
   y         -0.391067D+00     -0.993993D+00     -0.331560D+01
   z         -0.105469D+01     -0.268075D+01     -0.894201D+01

 Dipole polarizability, Alpha (input orientation).
 (esu units = cm**3 , SI units = C**2 m**2 J**-1)
 Alpha(0;0):
               (au)            (10**-24 esu)      (10**-40 SI)
   iso        0.504530D+02      0.747636D+01      0.831857D+01
   aniso      0.247355D+02      0.366543D+01      0.407834D+01
   xx         0.595222D+02      0.882029D+01      0.981389D+01
   yx         0.180905D+01      0.268074D+00      0.298273D+00
   yy         0.343313D+02      0.508737D+01      0.566046D+01
   zx         0.188500D+01      0.279329D+00      0.310795D+00
   zy        -0.108370D+01     -0.160588D+00     -0.178678D+00
   zz         0.575054D+02      0.852142D+01      0.948136D+01

 ----------------------------------------------------------------------

 Dipole orientation:
     1          0.00000000          0.00000000          0.00000000
     6          0.00812417          0.70853852         -1.91089308
     6          2.11641710          1.25751329         -3.38712622
     6         -2.11236751          1.26869383         -3.38042170
     1          4.06380040          1.08473978         -2.80426166
     1         -2.21701618          3.58239058         -4.16386418
     6          1.25108140          2.17628012         -5.69847530
     7         -1.30187050          2.15439534         -5.86337260
     1         -4.06078948          0.73078146         -3.11062303
     1          2.35792668          2.96214233         -7.22517814

 Electric dipole moment (dipole orientation):
 (Debye = 10**-18 statcoulomb cm , SI units = C m)
                  (au)            (Debye)         (10**-30 SI)
   Tot        0.112486D+01      0.285912D+01      0.953700D+01
   x          0.000000D+00      0.000000D+00      0.000000D+00
   y          0.000000D+00      0.000000D+00      0.000000D+00
   z          0.112486D+01      0.285912D+01      0.953700D+01

 Dipole polarizability, Alpha (dipole orientation).
 (esu units = cm**3 , SI units = C**2 m**2 J**-1)
 Alpha(0;0):
               (au)            (10**-24 esu)      (10**-40 SI)
   iso        0.504530D+02      0.747636D+01      0.831857D+01
   aniso      0.247355D+02      0.366543D+01      0.407834D+01
   xx         0.595398D+02      0.882289D+01      0.981679D+01
   yx        -0.102299D+01     -0.151592D+00     -0.168669D+00
   yy         0.378402D+02      0.560734D+01      0.623901D+01
   zx        -0.238025D+01     -0.352717D+00     -0.392450D+00
   zy        -0.837825D+01     -0.124153D+01     -0.138139D+01
   zz         0.539789D+02      0.799885D+01      0.889992D+01

 ----------------------------------------------------------------------
 1\1\GINC-BHC0108\Freq\RB3LYP\def2TZVP\C4H5N1\DHANAWAY\10-Jun-2022\1\\#
 N Geom=AllCheck Guess=TCheck SCRF=Check GenChk RB3LYP/def2TZVP Freq\\t
 s_zmat_initalOpt\\0,1\H\C,1,R2\C,2,R3,1,A3\C,2,R4,1,A4,3,D4,0\H,3,R5,2
 ,A5,1,D5,0\H,4,R6,2,A6,1,D6,0\C,3,R7,2,A7,5,D7,0\N,4,R8,2,A8,6,D8,0\H,
 4,R9,2,A9,6,D9,0\H,7,R10,3,A10,2,D10,0\\R2=1.07848409\R3=1.39260467\R4
 =1.3970452\R5=1.07955828\R6=1.29382758\R7=1.39358323\R8=1.45945671\R9=
 1.07911797\R10=1.08106481\A3=126.99001285\A4=126.33244077\A5=125.93012
 989\A6=114.42641464\A7=107.5700236\A8=109.46453382\A9=129.62971973\A10
 =127.73983002\D4=180.42669515\D5=-1.36142209\D6=121.59267986\D7=-177.3
 030034\D8=59.0106968\D9=-137.2416866\D10=173.28748894\\Version=ES64L-G
 16RevA.03\HF=-210.1840142\RMSD=5.029e-09\RMSF=2.046e-04\ZeroPoint=0.07
 72627\Thermal=0.0809591\Dipole=0.004484,-0.3910668,-1.0546876\DipoleDe
 riv=0.1071908,-0.0039276,0.003703,-0.0137842,0.1732017,0.0035654,-0.00
 33831,0.0042945,0.0444184,-0.0185157,0.0900932,0.002758,0.0842967,-0.1
 550264,0.0457243,0.0468839,0.0026704,-0.0162642,0.0614224,-0.0370178,-
 0.0478159,0.0043598,-0.1638678,0.0440978,-0.0558636,-0.0349408,-0.0240
 822,-0.0310821,-0.1340604,-0.0503013,-0.3479673,-0.1702053,0.0209504,-
 0.1851937,-0.0396045,0.1216228,-0.0491816,-0.0005783,0.0334052,0.00090
 4,0.1652929,-0.0089835,0.029587,-0.0005618,0.0895025,0.0556571,0.00227
 04,0.0256306,0.001607,0.1081644,0.0236992,-0.1320095,-0.1179263,0.2672
 306,0.0140684,-0.0866199,0.0382593,-0.0159811,-0.1486195,-0.1394201,-0
 .039103,-0.0210668,0.1831363,-0.178301,0.1371893,0.0962074,0.149371,-0
 .1363345,-0.0587138,0.4398163,0.1781121,-0.6571838,0.0432834,0.0266484
 ,-0.0102102,0.1173449,0.1793432,0.0100189,0.0058916,0.0094939,0.078168
 5,-0.0045416,0.0060026,-0.0916361,0.0198491,0.1480511,0.0590613,-0.106
 6259,0.0195291,-0.0865488\Polar=59.522236,1.8090546,34.3312732,1.88500
 3,-1.0836983,57.5054072\PG=C01 [X(C4H5N1)]\NImag=1\\0.04965367,0.00059
 161,0.02422521,-0.00003846,-0.00030362,0.36955719,-0.05843669,0.000916
 54,0.00022279,0.56371004,-0.00117141,-0.03308368,0.00049656,-0.0023303
 9,0.13430580,0.00037650,-0.00129114,-0.35485345,0.00210314,-0.00411648
 ,0.84194452,0.00765123,0.00005421,0.00379996,-0.25602181,0.00032719,-0
 .12208135,0.81481334,0.00016319,0.00185785,-0.00012980,0.00127004,-0.0
 6503859,-0.00001982,-0.00397755,0.13409288,-0.02377906,0.00002034,-0.0
 0659745,-0.07607647,0.00067608,-0.19528060,-0.07138025,-0.00611903,0.5
 9213309,0.00817496,-0.00083100,-0.00409535,-0.23607053,0.00335325,0.11
 851204,-0.06694238,0.00003438,-0.03763633,0.78626529,0.00088550,-0.000
 25009,-0.00035265,0.04622721,-0.06867583,0.00107579,-0.00879224,0.0103
 4800,-0.03684578,-0.10051938,0.13747948,0.02224798,0.00166434,-0.00716
 548,0.08306060,0.00279229,-0.17654694,0.02262561,0.00237022,0.05177096
 ,0.01018774,-0.00292490,0.42236534,0.00053189,-0.00011528,-0.00020094,
 -0.01183704,0.00025112,0.01055533,-0.32263472,0.00495169,0.08093642,-0
 .00332048,0.00053323,-0.00126526,0.33878023,0.00001740,-0.00295859,0.0
 0003192,-0.00067273,0.00145865,-0.00040573,0.00643117,-0.03534366,-0.0
 0152187,-0.00064925,0.00580380,-0.00117647,-0.00579370,0.02521902,0.00
 112027,-0.00007448,0.00025090,-0.01799429,0.00028927,0.01214689,0.0817
 9133,-0.00168286,-0.08494809,-0.00457553,-0.00047172,-0.00301894,-0.08
 840206,0.00179291,0.07674420,0.00055695,0.00083729,0.00000852,0.015356
 36,-0.01020841,-0.00372408,-0.00923419,-0.00140998,-0.01791866,-0.0202
 1366,-0.03081872,0.03591126,0.00008973,0.00309061,-0.00041872,0.045311
 16,0.00043126,0.00050086,-0.00003268,0.00713947,0.00259316,-0.00587587
 ,-0.00304829,-0.00023733,-0.00747394,-0.00692267,-0.09625371,0.0665606
 6,0.00024371,0.00085773,-0.00043448,0.02136895,0.16003186,0.00108478,-
 0.00010041,-0.00023547,0.05448637,0.00416188,-0.01044167,-0.00776719,0
 .00260330,-0.04100483,-0.03392366,-0.04481206,0.04220067,-0.00021336,-
 0.00199196,-0.00133580,-0.02346950,-0.03593240,-0.04976644,-0.00484016
 ,-0.00061132,-0.00096354,0.04978176,0.00130451,-0.00479256,-0.13718456
 ,0.00512648,0.04129493,-0.08290813,-0.04806677,-0.00117586,-0.00094864
 ,-0.00216303,0.02474027,-0.03712495,-0.01004495,-0.05944940,0.62616661
 ,0.00007172,0.00489846,0.00013413,-0.00745975,0.01236951,0.00233267,0.
 00202802,-0.06556171,0.01830167,0.00566249,0.01303740,-0.01022774,0.00
 020394,-0.00153606,-0.00082873,-0.01716455,0.00494971,0.00815652,-0.01
 191204,0.14536586,-0.00363647,0.00020864,-0.00100502,-0.06549822,-0.00
 052750,-0.05601440,0.08324596,0.00531407,-0.29646286,-0.03263904,0.019
 47074,-0.06063752,-0.00259173,-0.00015175,0.00364224,0.01178962,0.0094
 6978,0.01758232,0.10849720,-0.04235053,0.75697506,-0.00412037,-0.00042
 001,0.00070854,-0.05655921,0.00478473,0.00502745,-0.03845262,-0.005625
 81,0.09276501,-0.05201990,0.07574168,-0.11583348,-0.00010499,-0.000091
 86,0.00529124,0.00500147,-0.01052607,0.06831593,-0.28665282,0.01403165
 ,0.02085774,0.45435285,-0.00103299,0.00585854,0.00009956,-0.03922577,0
 .01107182,0.00885345,0.00721664,0.01562300,0.03063174,0.03230439,0.028
 02498,-0.06882146,0.00000956,0.00774973,0.00144800,0.01884125,-0.07344
 680,0.05578573,0.04647815,-0.08514050,-0.01899325,-0.06428189,0.108746
 54,0.00458449,-0.00008893,0.00022355,0.00384219,0.00132894,-0.06827332
 ,0.02285192,-0.00577242,-0.00726209,0.03366871,0.05041306,-0.20420907,
 -0.00010251,0.00303291,-0.00464504,0.00092597,-0.02528754,0.04473490,0
 .01450398,-0.00243579,-0.09423304,-0.04959398,-0.01571288,0.32892456,0
 .00000359,-0.00057510,0.00033657,-0.00919097,0.00342722,-0.00911377,-0
 .00262951,0.00068438,0.00310130,-0.32688344,0.06308642,-0.05745168,-0.
 00044639,-0.00019359,-0.00061935,0.00018405,0.00021619,0.00104037,0.00
 235853,0.00109744,-0.00024182,-0.00275717,-0.00220806,-0.00209960,0.33
 945155,0.00002569,-0.00179062,0.00010314,-0.00826058,0.00016355,-0.000
 31950,0.00010323,0.00359474,0.00524956,0.06946538,-0.03279084,0.008372
 58,-0.00023180,0.00068609,-0.00006535,0.01579988,-0.00056159,0.0135869
 1,0.00483009,0.00183118,-0.00282792,-0.01529635,-0.01276948,-0.0077144
 1,-0.06570246,0.03980062,-0.00078220,0.00012421,0.00002262,0.01401509,
 -0.00548431,0.01203248,0.00452211,0.00106925,-0.00194811,-0.05128668,0
 .01339053,-0.06543767,0.00066773,0.00061453,0.00101393,-0.00340537,-0.
 00118362,-0.00243448,0.00044669,0.00065136,-0.00801580,-0.02746266,0.0
 0839756,-0.00177256,0.06502469,-0.01643306,0.06631709,0.00082493,0.000
 15307,0.00022191,-0.00073192,0.00026219,0.00313730,0.01063522,-0.00121
 681,0.00869311,-0.00608174,0.00172308,0.00169308,-0.00010960,0.0000249
 9,-0.00093317,0.00007308,0.00114239,-0.00010432,-0.12864763,0.01344107
 ,-0.11978324,-0.01868724,0.00189872,-0.02858116,-0.00009023,-0.0007330
 8,-0.00173942,0.14281513,0.00001803,0.00074206,-0.00004657,0.00239596,
 0.00483560,-0.00023339,-0.00034237,0.00066481,-0.00291876,-0.00189758,
 0.00327682,0.00139048,-0.00005248,-0.00193672,0.00002744,-0.00033632,0
 .00156611,-0.00145750,0.01505889,-0.03021384,0.03038771,0.00168393,-0.
 00571782,0.00223706,0.00016756,0.00183636,-0.00114644,-0.01669561,0.02
 494662,-0.00117783,-0.00015897,-0.00019740,0.00183880,0.00038327,-0.00
 471351,-0.01760810,0.00236709,-0.01040002,0.00178811,0.00105700,0.0006
 7865,0.00061637,-0.00022450,0.00014971,0.00030097,0.00019008,0.0007008
 0,-0.12310172,0.02626644,-0.26183098,-0.00007580,-0.00168844,0.0065121
 0,0.00002329,0.00004806,0.00022251,0.13739590,-0.02824004,0.26887812\\
 0.00069149,0.00018741,0.00000001,-0.00069414,-0.00044346,0.00000023,-0
 .00000025,0.00025392,0.00000131,0.00000739,0.00000039,0.00000193,-0.00
 000013,0.00000026,0.00000014,0.00000171,-0.00000102,-0.00000104,-0.000
 00113,-0.00000039,-0.00000338,-0.00000422,0.00000254,-0.00000088,0.000
 00047,0.00000075,0.00000215,-0.00000118,-0.00000040,-0.00000048\\\@


 Where a calculator on the ENIAC is equipped with 18,000
 vacuum tubes and weighs 30 tons, computers inthe future
 may  have only 1,000 vacuum tubes and weigh only 1 1/2 tons.
              ---Popular Mechanics, March 1949
 Job cpu time:       0 days  0 hours 18 minutes 15.1 seconds.
 Elapsed time:       0 days  0 hours  1 minutes 32.1 seconds.
 File lengths (MBytes):  RWF=     34 Int=      0 D2E=      0 Chk=     32 Scr=      1
 Normal termination of Gaussian 16 at Fri Jun 10 23:46:34 2022.
