 Entering Gaussian System, Link 0=g16
 Input=ts_initalOpt_zmat_sp.gjf
 Output=ts_initalOpt_zmat_sp.out
 Initial command:
 /software/gaussian/g16-a03/l1.exe "/local_scratch/11177247/Gau-11666.inp" -scrdir="/local_scratch/11177247/"
 Entering Link 1 = /software/gaussian/g16-a03/l1.exe PID=     11667.
  
 Copyright (c) 1988,1990,1992,1993,1995,1998,2003,2009,2016,
            Gaussian, Inc.  All Rights Reserved.
  
 This is part of the Gaussian(R) 16 program.  It is based on
 the Gaussian(R) 09 system (copyright 2009, Gaussian, Inc.),
 the Gaussian(R) 03 system (copyright 2003, Gaussian, Inc.),
 the Gaussian(R) 98 system (copyright 1998, Gaussian, Inc.),
 the Gaussian(R) 94 system (copyright 1995, Gaussian, Inc.),
 the Gaussian 92(TM) system (copyright 1992, Gaussian, Inc.),
 the Gaussian 90(TM) system (copyright 1990, Gaussian, Inc.),
 the Gaussian 88(TM) system (copyright 1988, Gaussian, Inc.),
 the Gaussian 86(TM) system (copyright 1986, Carnegie Mellon
 University), and the Gaussian 82(TM) system (copyright 1983,
 Carnegie Mellon University). Gaussian is a federally registered
 trademark of Gaussian, Inc.
  
 This software contains proprietary and confidential information,
 including trade secrets, belonging to Gaussian, Inc.
  
 This software is provided under written license and may be
 used, copied, transmitted, or stored only in accord with that
 written license.
  
 The following legend is applicable only to US Government
 contracts under FAR:
  
                    RESTRICTED RIGHTS LEGEND
  
 Use, reproduction and disclosure by the US Government is
 subject to restrictions as set forth in subparagraphs (a)
 and (c) of the Commercial Computer Software - Restricted
 Rights clause in FAR 52.227-19.
  
 Gaussian, Inc.
 340 Quinnipiac St., Bldg. 40, Wallingford CT 06492
  
  
 ---------------------------------------------------------------
 Warning -- This program may not be used in any manner that
 competes with the business of Gaussian, Inc. or will provide
 assistance to any competitor of Gaussian, Inc.  The licensee
 of this program is prohibited from giving any competitor of
 Gaussian, Inc. access to this program.  By using this program,
 the user acknowledges that Gaussian, Inc. is engaged in the
 business of creating and licensing software in the field of
 computational chemistry and represents and warrants to the
 licensee that it is not a competitor of Gaussian, Inc. and that
 it will not use this program in any manner prohibited above.
 ---------------------------------------------------------------
  

 Cite this work as:
 Gaussian 16, Revision A.03,
 M. J. Frisch, G. W. Trucks, H. B. Schlegel, G. E. Scuseria, 
 M. A. Robb, J. R. Cheeseman, G. Scalmani, V. Barone, 
 G. A. Petersson, H. Nakatsuji, X. Li, M. Caricato, A. V. Marenich, 
 J. Bloino, B. G. Janesko, R. Gomperts, B. Mennucci, H. P. Hratchian, 
 J. V. Ortiz, A. F. Izmaylov, J. L. Sonnenberg, D. Williams-Young, 
 F. Ding, F. Lipparini, F. Egidi, J. Goings, B. Peng, A. Petrone, 
 T. Henderson, D. Ranasinghe, V. G. Zakrzewski, J. Gao, N. Rega, 
 G. Zheng, W. Liang, M. Hada, M. Ehara, K. Toyota, R. Fukuda, 
 J. Hasegawa, M. Ishida, T. Nakajima, Y. Honda, O. Kitao, H. Nakai, 
 T. Vreven, K. Throssell, J. A. Montgomery, Jr., J. E. Peralta, 
 F. Ogliaro, M. J. Bearpark, J. J. Heyd, E. N. Brothers, K. N. Kudin, 
 V. N. Staroverov, T. A. Keith, R. Kobayashi, J. Normand, 
 K. Raghavachari, A. P. Rendell, J. C. Burant, S. S. Iyengar, 
 J. Tomasi, M. Cossi, J. M. Millam, M. Klene, C. Adamo, R. Cammi, 
 J. W. Ochterski, R. L. Martin, K. Morokuma, O. Farkas, 
 J. B. Foresman, and D. J. Fox, Gaussian, Inc., Wallingford CT, 2016.
 
 ******************************************
 Gaussian 16:  ES64L-G16RevA.03 25-Dec-2016
                12-Jun-2022 
 ******************************************
 %nprocshared=12
 Will use up to   12 processors via shared memory.
 %chk=checkpoint.chk
 %mem=12GB
 --------------------------
 # sp B3LYP/Def2TZVP NoSymm
 --------------------------
 1/38=1,172=1/1;
 2/12=2,15=1,17=6,18=5,40=1/2;
 3/5=44,7=101,11=2,25=1,30=1,74=-5/1,2,3;
 4//1;
 5/5=2,38=5/2;
 6/7=2,8=2,9=2,10=2,28=1/1;
 99/5=1,9=1/99;
 ---------------------------
 ts_initalOpt_zmat_AlignedSp
 ---------------------------
 Symbolic Z-matrix:
 Charge =  0 Multiplicity = 1
 C
 H                    1    R2
 H                    1    R3       2    A3
 C                    1    R4       2    A4       3    D4       0
 C                    1    R4       2    A4       3    -D4      0
 C                    5    R6       1    A6       2    D6       0
 C                    4    R6       1    A6       2    -D6      0
 H                    5    R8       1    A8       6    D8       0
 H                    4    R8       1    A8       7    -D8      0
 H                    6    R10      5    A10      1    D10      0
 H                    7    R10      4    A10      1    -D10     0
 C                    1    R12      2    A12      3    D12      0
 C                    12   R13      1    A13      2    D13      0
 C                    12   R14      1    A14      13   D14      0
 H                    12   R15      1    A15      13   D15      0
 O                    13   R16      12   A16      1    D16      0
 O                    13   R17      12   A17      16   D17      0
 C                    14   R13      12   A18      1    D18      0
 H                    14   R15      12   A19      18   D19      0
 O                    18   R17      14   A17      12   D20      0
       Variables:
  R2                    1.08725                  
  R3                    1.09863                  
  R4                    1.50658                  
  R6                    1.4021                   
  R8                    1.08058                  
  R10                   1.08017                  
  R12                   2.63316                  
  R13                   1.47576                  
  R14                   1.39892                  
  R15                   1.0781                   
  R16                   1.39688                  
  R17                   1.19309                  
  A3                  107.85544                  
  A4                  116.25133                  
  A6                  106.58767                  
  A8                  123.68064                  
  A10                 125.13949                  
  A12                  78.4465                   
  A13                 131.43242                  
  A14                  74.59533                  
  A15                  91.95917                  
  A16                 107.51454                  
  A17                 130.87883                  
  A18                 107.37715                  
  A19                 126.30714                  
  D4                  121.58554                  
  D6                 -154.36044                  
  D8                 -154.0626                   
  D10                -168.40754                  
  D12                 164.26859                  
  D13                -173.44082                  
  D14                 -99.78813                  
  D15                 132.97492                  
  D16                 -79.18652                  
  D17                 179.70717                  
  D18                 129.27145                  
  D19                 149.84537                  
  D20                 174.93277                  
 
                          Input orientation:                          
 ---------------------------------------------------------------------
 Center     Atomic      Atomic             Coordinates (Angstroms)
 Number     Number       Type             X           Y           Z
 ---------------------------------------------------------------------
      1          6           0        0.000000    0.000000    0.000000
      2          1           0        0.000000    0.000000    1.087252
      3          1           0        1.045715    0.000000   -0.336859
      4          6           0       -0.707719   -1.151031   -0.666376
      5          6           0       -0.707719    1.151031   -0.666376
      6          6           0       -1.110412    0.695841   -1.929916
      7          6           0       -1.110412   -0.695841   -1.929916
      8          1           0       -0.518568    2.188392   -0.430249
      9          1           0       -0.518568   -2.188392   -0.430249
     10          1           0       -1.484954    1.322348   -2.726136
     11          1           0       -1.484954   -1.322348   -2.726136
     12          6           0       -2.483178   -0.699459    0.527377
     13          6           0       -3.581751   -1.140209   -0.353950
     14          6           0       -2.483178    0.699459    0.527377
     15          1           0       -2.170315   -1.337815    1.337879
     16          8           0       -4.125795    0.000000   -0.949942
     17          8           0       -4.003541   -2.230963   -0.590182
     18          6           0       -3.581751    1.140209   -0.353950
     19          1           0       -2.170315    1.337815    1.337879
     20          8           0       -4.003541    2.230963   -0.590182
 ---------------------------------------------------------------------
                    Distance matrix (angstroms):
                    1          2          3          4          5
     1  C    0.000000
     2  H    1.087252   0.000000
     3  H    1.098632   1.766808   0.000000
     4  C    1.506584   2.213809   2.123201   0.000000
     5  C    1.506584   2.213809   2.123201   2.302062   0.000000
     6  C    2.332763   3.289455   2.769640   2.273682   1.402102
     7  C    2.332763   3.289455   2.769640   1.402102   2.273682
     8  H    2.289779   2.713076   2.691610   3.353100   1.080579
     9  H    2.289779   2.713076   2.691610   1.080579   3.353100
    10  H    3.374242   4.300654   3.723108   3.311240   2.208179
    11  H    3.374242   4.300654   3.723108   2.208179   3.311240
    12  C    2.633162   2.639863   3.699896   2.186600   2.828713
    13  C    3.775486   4.025677   4.765900   2.890984   3.688828
    14  C    2.633162   2.639863   3.699896   2.828713   2.186600
    15  H    2.879225   2.561802   3.864886   2.488195   3.514339
    16  O    4.233743   4.601342   5.207724   3.617808   3.617808
    17  O    4.621023   4.880504   5.525971   3.469079   4.722937
    18  C    3.775486   4.025677   4.765900   3.688828   2.890984
    19  H    2.879225   2.561802   3.864886   3.514339   2.488195
    20  O    4.621023   4.880504   5.525971   4.722937   3.469079
                    6          7          8          9         10
     6  C    0.000000
     7  C    1.391682   0.000000
     8  H    2.197041   3.304252   0.000000
     9  H    3.304252   2.197041   4.376784   0.000000
    10  H    1.080167   2.201667   2.637239   4.304683   0.000000
    11  H    2.201667   1.080167   4.304683   2.637239   2.644696
    12  C    3.141598   2.814745   3.621660   2.644553   3.958472
    13  C    3.458651   2.964566   4.524212   3.238456   4.010986
    14  C    2.814745   3.141598   2.644553   3.621660   3.459739
    15  H    3.992196   3.494854   4.276526   2.564766   4.905344
    16  O    3.246087   3.246087   4.251027   4.251027   3.446377
    17  O    4.327963   3.538599   5.630392   3.488900   4.850938
    18  C    2.964566   3.458651   3.238456   4.524212   3.171277
    19  H    3.494854   3.992196   2.564766   4.276526   4.121429
    20  O    3.538599   4.327963   3.488900   5.630392   3.425078
                   11         12         13         14         15
    11  H    0.000000
    12  C    3.459739   0.000000
    13  C    3.171277   1.475758   0.000000
    14  C    3.958472   1.398918   2.316890   0.000000
    15  H    4.121429   1.078097   2.212121   2.214787   0.000000
    16  O    3.446377   2.317306   1.396878   2.317306   3.293596
    17  O    3.425078   2.430216   1.193087   3.485372   2.806394
    18  C    4.010986   2.316890   2.280418   1.475758   3.315876
    19  H    4.905344   2.214787   3.315876   1.078097   2.675630
    20  O    4.850938   3.485372   3.405659   2.430216   4.451327
                   16         17         18         19         20
    16  O    0.000000
    17  O    2.263088   0.000000
    18  C    1.396878   3.405659   0.000000
    19  H    3.293596   4.451327   2.212121   0.000000
    20  O    2.263088   4.461926   1.193087   2.806394   0.000000
 Symmetry turned off by external request.
 Stoichiometry    C9H8O3
 Framework group  CS[SG(CH2O),X(C8H6O2)]
 Deg. of freedom    29
 Full point group                 CS      NOp   2
 Rotational constants (GHZ):           1.4014272           1.0789735           0.7990138
 Standard basis: def2TZVP (5D, 7F)
   420 basis functions,   676 primitive gaussians,   480 cartesian basis functions
    43 alpha electrons       43 beta electrons
       nuclear repulsion energy       708.6752211408 Hartrees.
 NAtoms=   20 NActive=   20 NUniq=   20 SFac= 1.00D+00 NAtFMM=   60 NAOKFM=F Big=F
 Integral buffers will be    131072 words long.
 Raffenetti 2 integral format.
 Two-electron integral symmetry is turned off.
 One-electron integrals computed using PRISM.
   1 Symmetry operations used in ECPInt.
 ECPInt:  NShTT=   13530 NPrTT=   41904 LenC2=   13163 LenP2D=   31870.
 LDataN:  DoStor=T MaxTD1= 6 Len=  172
 NBasis=   420 RedAO= T EigKep=  2.05D-05  NBF=   420
 NBsUse=   420 1.00D-06 EigRej= -1.00D+00 NBFU=   420
 ExpMin= 9.52D-02 ExpMax= 2.70D+04 ExpMxC= 9.22D+02 IAcc=3 IRadAn=         5 AccDes= 0.00D+00
 Harris functional with IExCor=  402 and IRadAn=       5 diagonalized for initial guess.
 HarFok:  IExCor=  402 AccDes= 0.00D+00 IRadAn=         5 IDoV= 1 UseB2=F ITyADJ=14
 ICtDFT=  3500011 ScaDFX=  1.000000  1.000000  1.000000  1.000000
 FoFCou: FMM=F IPFlag=           0 FMFlag=      100000 FMFlg1=           0
         NFxFlg=           0 DoJE=T BraDBF=F KetDBF=T FulRan=T
         wScrn=  0.000000 ICntrl=       500 IOpCl=  0 I1Cent=   200000004 NGrid=           0
         NMat0=    1 NMatS0=      1 NMatT0=    0 NMatD0=    1 NMtDS0=    0 NMtDT0=    0
 Symmetry not used in FoFCou.
 Requested convergence on RMS density matrix=1.00D-08 within 128 cycles.
 Requested convergence on MAX density matrix=1.00D-06.
 Requested convergence on             energy=1.00D-06.
 No special actions if energy rises.
 Integral accuracy reduced to 1.0D-05 until final iterations.
 Initial convergence to 1.0D-05 achieved.  Increase integral accuracy.
 SCF Done:  E(RB3LYP) =  -573.600468168     A.U. after   15 cycles
            NFock= 15  Conv=0.22D-08     -V/T= 2.0047

 **********************************************************************

            Population analysis using the SCF density.

 **********************************************************************

 Alpha  occ. eigenvalues --  -19.18801 -19.12928 -19.12928 -10.31502 -10.31500
 Alpha  occ. eigenvalues --  -10.22617 -10.22616 -10.21748 -10.21694 -10.21152
 Alpha  occ. eigenvalues --  -10.20393 -10.20336  -1.13362  -1.07165  -1.03214
 Alpha  occ. eigenvalues --   -0.90914  -0.82686  -0.74750  -0.74476  -0.69163
 Alpha  occ. eigenvalues --   -0.62737  -0.59650  -0.58484  -0.56377  -0.55445
 Alpha  occ. eigenvalues --   -0.51203  -0.49817  -0.47073  -0.46890  -0.45160
 Alpha  occ. eigenvalues --   -0.44035  -0.42289  -0.41533  -0.41375  -0.41202
 Alpha  occ. eigenvalues --   -0.40180  -0.39361  -0.35529  -0.33232  -0.31152
 Alpha  occ. eigenvalues --   -0.28956  -0.27953  -0.27348
 Alpha virt. eigenvalues --   -0.07684  -0.06095  -0.00773   0.01750   0.03875
 Alpha virt. eigenvalues --    0.05268   0.05514   0.06178   0.07667   0.07736
 Alpha virt. eigenvalues --    0.08705   0.08963   0.11531   0.13033   0.13083
 Alpha virt. eigenvalues --    0.13434   0.15358   0.16739   0.17405   0.18214
 Alpha virt. eigenvalues --    0.18351   0.19082   0.19363   0.20252   0.22652
 Alpha virt. eigenvalues --    0.23516   0.24370   0.25590   0.26433   0.27724
 Alpha virt. eigenvalues --    0.27772   0.30748   0.30838   0.31907   0.32745
 Alpha virt. eigenvalues --    0.33329   0.34307   0.34546   0.35966   0.36105
 Alpha virt. eigenvalues --    0.37389   0.38451   0.38791   0.38805   0.39630
 Alpha virt. eigenvalues --    0.40439   0.40905   0.41979   0.42483   0.43347
 Alpha virt. eigenvalues --    0.43795   0.43922   0.45463   0.46805   0.47052
 Alpha virt. eigenvalues --    0.48750   0.50212   0.50929   0.51612   0.51856
 Alpha virt. eigenvalues --    0.53442   0.54388   0.55110   0.55687   0.56763
 Alpha virt. eigenvalues --    0.57871   0.59011   0.61030   0.61322   0.64627
 Alpha virt. eigenvalues --    0.64938   0.67406   0.68125   0.68793   0.71589
 Alpha virt. eigenvalues --    0.73155   0.74806   0.75099   0.77565   0.78194
 Alpha virt. eigenvalues --    0.80733   0.81701   0.81779   0.85805   0.87160
 Alpha virt. eigenvalues --    0.88863   0.89404   0.90331   0.91551   0.91592
 Alpha virt. eigenvalues --    0.91836   0.95275   0.95842   0.98120   0.98345
 Alpha virt. eigenvalues --    0.99243   1.01368   1.01372   1.03384   1.05551
 Alpha virt. eigenvalues --    1.07432   1.09543   1.11170   1.11173   1.12688
 Alpha virt. eigenvalues --    1.13022   1.13828   1.14952   1.15786   1.16550
 Alpha virt. eigenvalues --    1.19858   1.20131   1.24899   1.25272   1.25942
 Alpha virt. eigenvalues --    1.26085   1.28462   1.29386   1.33375   1.33787
 Alpha virt. eigenvalues --    1.34968   1.35141   1.37630   1.38436   1.39352
 Alpha virt. eigenvalues --    1.40614   1.40869   1.43160   1.43661   1.44833
 Alpha virt. eigenvalues --    1.51144   1.51837   1.52709   1.54173   1.55541
 Alpha virt. eigenvalues --    1.56986   1.58974   1.60304   1.61496   1.63248
 Alpha virt. eigenvalues --    1.65957   1.67378   1.69035   1.70485   1.74773
 Alpha virt. eigenvalues --    1.76128   1.78480   1.79054   1.81619   1.81893
 Alpha virt. eigenvalues --    1.86760   1.88448   1.89747   1.90658   1.92043
 Alpha virt. eigenvalues --    1.93919   1.95032   1.95261   1.97027   1.99120
 Alpha virt. eigenvalues --    1.99634   2.00064   2.03573   2.04855   2.06946
 Alpha virt. eigenvalues --    2.07935   2.08904   2.12411   2.15346   2.15426
 Alpha virt. eigenvalues --    2.18558   2.20174   2.20368   2.21199   2.21234
 Alpha virt. eigenvalues --    2.25148   2.26657   2.28978   2.30054   2.30314
 Alpha virt. eigenvalues --    2.31930   2.33939   2.37659   2.38821   2.39947
 Alpha virt. eigenvalues --    2.41215   2.41606   2.46363   2.46925   2.50108
 Alpha virt. eigenvalues --    2.50714   2.51054   2.52272   2.57807   2.57949
 Alpha virt. eigenvalues --    2.60394   2.60601   2.61188   2.63141   2.63777
 Alpha virt. eigenvalues --    2.65147   2.65605   2.65696   2.67171   2.69128
 Alpha virt. eigenvalues --    2.70917   2.71495   2.73437   2.74994   2.78330
 Alpha virt. eigenvalues --    2.79982   2.80416   2.82559   2.82854   2.82968
 Alpha virt. eigenvalues --    2.83640   2.85118   2.85251   2.89245   2.90204
 Alpha virt. eigenvalues --    2.91814   2.95172   2.96983   2.97732   2.98554
 Alpha virt. eigenvalues --    2.98560   3.02243   3.02482   3.02874   3.04143
 Alpha virt. eigenvalues --    3.05429   3.07467   3.08992   3.10147   3.12127
 Alpha virt. eigenvalues --    3.12709   3.13131   3.14778   3.15531   3.18101
 Alpha virt. eigenvalues --    3.18440   3.19545   3.20707   3.21480   3.23220
 Alpha virt. eigenvalues --    3.23682   3.24101   3.27118   3.28305   3.29254
 Alpha virt. eigenvalues --    3.29647   3.31200   3.32900   3.33210   3.34314
 Alpha virt. eigenvalues --    3.34682   3.36193   3.37069   3.37442   3.38128
 Alpha virt. eigenvalues --    3.39503   3.40597   3.45331   3.46022   3.46502
 Alpha virt. eigenvalues --    3.49490   3.52130   3.53994   3.54650   3.54976
 Alpha virt. eigenvalues --    3.56856   3.58240   3.59514   3.63651   3.65636
 Alpha virt. eigenvalues --    3.66701   3.69799   3.76924   3.77882   3.79789
 Alpha virt. eigenvalues --    3.82173   3.86344   3.86550   3.88989   3.92600
 Alpha virt. eigenvalues --    3.95065   3.95133   3.99227   4.01166   4.03307
 Alpha virt. eigenvalues --    4.06067   4.08361   4.08561   4.13526   4.13752
 Alpha virt. eigenvalues --    4.15562   4.17150   4.19925   4.22166   4.22316
 Alpha virt. eigenvalues --    4.23273   4.29177   4.29679   4.31909   4.34395
 Alpha virt. eigenvalues --    4.37043   4.38970   4.39391   4.43095   4.45668
 Alpha virt. eigenvalues --    4.53026   4.55022   4.59342   4.59938   4.65583
 Alpha virt. eigenvalues --    4.66004   4.67517   4.73394   4.75422   4.81183
 Alpha virt. eigenvalues --    4.86140   4.89499   4.89577   4.95590   4.97007
 Alpha virt. eigenvalues --    5.00346   5.04023   5.13563   5.15185   5.17381
 Alpha virt. eigenvalues --    5.19663   5.21217   5.23667   5.24567   5.40623
 Alpha virt. eigenvalues --    5.46320   5.59418   5.63075   5.63114   5.74392
 Alpha virt. eigenvalues --    5.74976   5.91761   6.14880   6.17416   6.19991
 Alpha virt. eigenvalues --    6.25249   6.35074   6.35688   6.36200   6.46582
 Alpha virt. eigenvalues --    6.49416   6.54071   6.67281   6.67936   6.78545
 Alpha virt. eigenvalues --    6.79498   6.81556   6.82951   6.94721   7.04280
 Alpha virt. eigenvalues --    7.05156   7.12971   7.14741   7.25831   7.43097
 Alpha virt. eigenvalues --   22.30411  22.45015  22.50928  22.56031  22.61270
 Alpha virt. eigenvalues --   22.77377  22.89925  23.02607  23.54519  43.89585
 Alpha virt. eigenvalues --   43.92403  44.12596
          Condensed to atoms (all electrons):
               1          2          3          4          5          6
     1  C    4.962065   0.425239   0.360570   0.311339   0.311339  -0.045158
     2  H    0.425239   0.559891  -0.026465  -0.036399  -0.036399   0.005573
     3  H    0.360570  -0.026465   0.566826  -0.017888  -0.017888  -0.002432
     4  C    0.311339  -0.036399  -0.017888   5.177348  -0.161890  -0.011315
     5  C    0.311339  -0.036399  -0.017888  -0.161890   5.177348   0.397189
     6  C   -0.045158   0.005573  -0.002432  -0.011315   0.397189   5.112365
     7  C   -0.045158   0.005573  -0.002432   0.397189  -0.011315   0.371417
     8  H   -0.040707  -0.001711  -0.000007   0.007797   0.425829  -0.043000
     9  H   -0.040707  -0.001711  -0.000007   0.425829   0.007797   0.010241
    10  H    0.007109  -0.000125  -0.000494   0.005889  -0.031869   0.415435
    11  H    0.007109  -0.000125  -0.000494  -0.031869   0.005889  -0.032875
    12  C   -0.053568  -0.005769   0.007926  -0.061740   0.102537  -0.082560
    13  C    0.008610   0.000940  -0.000583   0.026864  -0.012110   0.007977
    14  C   -0.053568  -0.005769   0.007926   0.102537  -0.061740   0.056215
    15  H   -0.002959   0.000140   0.000198  -0.021255   0.000760   0.004577
    16  O   -0.000184  -0.000107   0.000011  -0.003479  -0.003479   0.007929
    17  O    0.000967  -0.000042  -0.000012   0.001846  -0.000566   0.001438
    18  C    0.008610   0.000940  -0.000583  -0.012110   0.026864  -0.020369
    19  H   -0.002959   0.000140   0.000198   0.000760  -0.021255  -0.003960
    20  O    0.000967  -0.000042  -0.000012  -0.000566   0.001846  -0.006936
               7          8          9         10         11         12
     1  C   -0.045158  -0.040707  -0.040707   0.007109   0.007109  -0.053568
     2  H    0.005573  -0.001711  -0.001711  -0.000125  -0.000125  -0.005769
     3  H   -0.002432  -0.000007  -0.000007  -0.000494  -0.000494   0.007926
     4  C    0.397189   0.007797   0.425829   0.005889  -0.031869  -0.061740
     5  C   -0.011315   0.425829   0.007797  -0.031869   0.005889   0.102537
     6  C    0.371417  -0.043000   0.010241   0.415435  -0.032875  -0.082560
     7  C    5.112365   0.010241  -0.043000  -0.032875   0.415435   0.056215
     8  H    0.010241   0.516880  -0.000137  -0.003410  -0.000110   0.002236
     9  H   -0.043000  -0.000137   0.516880  -0.000110  -0.003410  -0.017545
    10  H   -0.032875  -0.003410  -0.000110   0.499374  -0.002008  -0.002175
    11  H    0.415435  -0.000110  -0.003410  -0.002008   0.499374  -0.000396
    12  C    0.056215   0.002236  -0.017545  -0.002175  -0.000396   6.386260
    13  C   -0.020369  -0.000047   0.000205  -0.000044   0.003081   0.025904
    14  C   -0.082560  -0.017545   0.002236  -0.000396  -0.002175  -0.438643
    15  H   -0.003960  -0.000329   0.000388   0.000034  -0.000154   0.391624
    16  O    0.007929   0.000328   0.000328  -0.000753  -0.000753  -0.123988
    17  O   -0.006936   0.000003   0.002445   0.000024   0.001101  -0.117487
    18  C    0.007977   0.000205  -0.000047   0.003081  -0.000044   0.103874
    19  H    0.004577   0.000388  -0.000329  -0.000154   0.000034  -0.021739
    20  O    0.001438   0.002445   0.000003   0.001101   0.000024   0.010627
              13         14         15         16         17         18
     1  C    0.008610  -0.053568  -0.002959  -0.000184   0.000967   0.008610
     2  H    0.000940  -0.005769   0.000140  -0.000107  -0.000042   0.000940
     3  H   -0.000583   0.007926   0.000198   0.000011  -0.000012  -0.000583
     4  C    0.026864   0.102537  -0.021255  -0.003479   0.001846  -0.012110
     5  C   -0.012110  -0.061740   0.000760  -0.003479  -0.000566   0.026864
     6  C    0.007977   0.056215   0.004577   0.007929   0.001438  -0.020369
     7  C   -0.020369  -0.082560  -0.003960   0.007929  -0.006936   0.007977
     8  H   -0.000047  -0.017545  -0.000329   0.000328   0.000003   0.000205
     9  H    0.000205   0.002236   0.000388   0.000328   0.002445  -0.000047
    10  H   -0.000044  -0.000396   0.000034  -0.000753   0.000024   0.003081
    11  H    0.003081  -0.002175  -0.000154  -0.000753   0.001101  -0.000044
    12  C    0.025904  -0.438643   0.391624  -0.123988  -0.117487   0.103874
    13  C    4.581002   0.103874  -0.014222   0.313031   0.742288  -0.040809
    14  C    0.103874   6.386260  -0.021739  -0.123988   0.010627   0.025904
    15  H   -0.014222  -0.021739   0.518179   0.003634   0.001149   0.000931
    16  O    0.313031  -0.123988   0.003634   7.984395  -0.084073   0.313031
    17  O    0.742288   0.010627   0.001149  -0.084073   7.700580   0.002009
    18  C   -0.040809   0.025904   0.000931   0.313031   0.002009   4.581002
    19  H    0.000931   0.391624  -0.002971   0.003634  -0.000089  -0.014222
    20  O    0.002009  -0.117487  -0.000089  -0.084073  -0.000180   0.742288
              19         20
     1  C   -0.002959   0.000967
     2  H    0.000140  -0.000042
     3  H    0.000198  -0.000012
     4  C    0.000760  -0.000566
     5  C   -0.021255   0.001846
     6  C   -0.003960  -0.006936
     7  C    0.004577   0.001438
     8  H    0.000388   0.002445
     9  H   -0.000329   0.000003
    10  H   -0.000154   0.001101
    11  H    0.000034   0.000024
    12  C   -0.021739   0.010627
    13  C    0.000931   0.002009
    14  C    0.391624  -0.117487
    15  H   -0.002971  -0.000089
    16  O    0.003634  -0.084073
    17  O   -0.000089  -0.000180
    18  C   -0.014222   0.742288
    19  H    0.518179   0.001149
    20  O    0.001149   7.700580
 Mulliken charges:
               1
     1  C   -0.118957
     2  H    0.116229
     3  H    0.125644
     4  C   -0.098888
     5  C   -0.098888
     6  C   -0.141751
     7  C   -0.141751
     8  H    0.140650
     9  H    0.140650
    10  H    0.142367
    11  H    0.142367
    12  C   -0.161591
    13  C    0.271467
    14  C   -0.161591
    15  H    0.146063
    16  O   -0.209372
    17  O   -0.255090
    18  C    0.271467
    19  H    0.146063
    20  O   -0.255090
 Sum of Mulliken charges =  -0.00000
 Mulliken charges with hydrogens summed into heavy atoms:
               1
     1  C    0.122916
     4  C    0.041763
     5  C    0.041763
     6  C    0.000616
     7  C    0.000616
    12  C   -0.015529
    13  C    0.271467
    14  C   -0.015529
    16  O   -0.209372
    17  O   -0.255090
    18  C    0.271467
    20  O   -0.255090
 Electronic spatial extent (au):  <R**2>=           3339.1251
 Charge=             -0.0000 electrons
 Dipole moment (field-independent basis, Debye):
    X=              5.8797    Y=             -0.0000    Z=              1.6859  Tot=              6.1166
 Quadrupole moment (field-independent basis, Debye-Ang):
   XX=           -101.4886   YY=            -78.1167   ZZ=            -65.2276
   XY=              0.0000   XZ=             -7.7823   YZ=              0.0000
 Traceless Quadrupole moment (field-independent basis, Debye-Ang):
   XX=            -19.8776   YY=              3.4942   ZZ=             16.3834
   XY=              0.0000   XZ=             -7.7823   YZ=              0.0000
 Octapole moment (field-independent basis, Debye-Ang**2):
  XXX=            616.0430  YYY=             -0.0000  ZZZ=            108.3244  XYY=            208.0481
  XXY=             -0.0000  XXZ=             79.8312  XZZ=            149.0090  YZZ=             -0.0000
  YYZ=             45.8512  XYZ=             -0.0000
 Hexadecapole moment (field-independent basis, Debye-Ang**3):
 XXXX=          -3732.3395 YYYY=           -767.9325 ZZZZ=           -454.9268 XXXY=              0.0000
 XXXZ=           -418.1917 YYYX=              0.0000 YYYZ=              0.0000 ZZZX=           -206.0269
 ZZZY=              0.0000 XXYY=           -866.3150 XXZZ=           -608.4209 YYZZ=           -187.4499
 XXYZ=              0.0000 YYXZ=           -111.0031 ZZXY=              0.0000
 N-N= 7.086752211408D+02 E-N=-2.756674358172D+03  KE= 5.708940736653D+02
 1\1\GINC-BHC0161\SP\RB3LYP\def2TZVP\C9H8O3\DHANAWAY\12-Jun-2022\0\\# s
 p B3LYP/Def2TZVP NoSymm\\ts_initalOpt_zmat_AlignedSp\\0,1\C\H,1,1.0872
 5234\H,1,1.09863231,2,107.85544409\C,1,1.50658399,2,116.25132786,3,121
 .58553552,0\C,1,1.50658399,2,116.25132786,3,-121.58553552,0\C,5,1.4021
 0249,1,106.58767241,2,-154.36043594,0\C,4,1.40210249,1,106.58767241,2,
 154.36043594,0\H,5,1.08057937,1,123.68063945,6,-154.0625952,0\H,4,1.08
 057937,1,123.68063945,7,154.0625952,0\H,6,1.08016664,5,125.13948855,1,
 -168.40753632,0\H,7,1.08016664,4,125.13948855,1,168.40753632,0\C,1,2.6
 3316191,2,78.446496,3,164.26858733,0\C,12,1.47575767,1,131.43242421,2,
 -173.44082025,0\C,12,1.398918,1,74.59533376,13,-99.78812655,0\H,12,1.0
 7809714,1,91.95916624,13,132.97491892,0\O,13,1.39687804,12,107.5145420
 6,1,-79.18651681,0\O,13,1.19308722,12,130.87882898,16,179.70717176,0\C
 ,14,1.47575767,12,107.37714607,1,129.27144914,0\H,14,1.07809714,12,126
 .30714082,18,149.84536671,0\O,18,1.19308722,14,130.87882898,12,174.932
 76779,0\\Version=ES64L-G16RevA.03\HF=-573.6004682\RMSD=2.245e-09\Dipol
 e=2.313239,0.,0.6632978\Quadrupole=-14.7785116,2.5978881,12.1806234,0.
 ,-5.7859453,0.\PG=CS [SG(C1H2O1),X(C8H6O2)]\\@


 "I COULD HAVE DONE IT IN A MUCH MORE COMPLICATED WAY"
 SAID THE RED QUEEN, IMMENSELY PROUD.

                                      -- LEWIS CARROLL
 Job cpu time:       0 days  0 hours 49 minutes 15.0 seconds.
 Elapsed time:       0 days  0 hours  4 minutes  8.2 seconds.
 File lengths (MBytes):  RWF=     98 Int=      0 D2E=      0 Chk=     32 Scr=      1
 Normal termination of Gaussian 16 at Sun Jun 12 01:15:59 2022.
