 Entering Gaussian System, Link 0=g16
 Input=ts_initalOpt_zmat_sp.gjf
 Output=ts_initalOpt_zmat_sp.out
 Initial command:
 /software/gaussian/g16-a03/l1.exe "/local_scratch/11171852/Gau-24670.inp" -scrdir="/local_scratch/11171852/"
 Entering Link 1 = /software/gaussian/g16-a03/l1.exe PID=     24671.
  
 Copyright (c) 1988,1990,1992,1993,1995,1998,2003,2009,2016,
            Gaussian, Inc.  All Rights Reserved.
  
 This is part of the Gaussian(R) 16 program.  It is based on
 the Gaussian(R) 09 system (copyright 2009, Gaussian, Inc.),
 the Gaussian(R) 03 system (copyright 2003, Gaussian, Inc.),
 the Gaussian(R) 98 system (copyright 1998, Gaussian, Inc.),
 the Gaussian(R) 94 system (copyright 1995, Gaussian, Inc.),
 the Gaussian 92(TM) system (copyright 1992, Gaussian, Inc.),
 the Gaussian 90(TM) system (copyright 1990, Gaussian, Inc.),
 the Gaussian 88(TM) system (copyright 1988, Gaussian, Inc.),
 the Gaussian 86(TM) system (copyright 1986, Carnegie Mellon
 University), and the Gaussian 82(TM) system (copyright 1983,
 Carnegie Mellon University). Gaussian is a federally registered
 trademark of Gaussian, Inc.
  
 This software contains proprietary and confidential information,
 including trade secrets, belonging to Gaussian, Inc.
  
 This software is provided under written license and may be
 used, copied, transmitted, or stored only in accord with that
 written license.
  
 The following legend is applicable only to US Government
 contracts under FAR:
  
                    RESTRICTED RIGHTS LEGEND
  
 Use, reproduction and disclosure by the US Government is
 subject to restrictions as set forth in subparagraphs (a)
 and (c) of the Commercial Computer Software - Restricted
 Rights clause in FAR 52.227-19.
  
 Gaussian, Inc.
 340 Quinnipiac St., Bldg. 40, Wallingford CT 06492
  
  
 ---------------------------------------------------------------
 Warning -- This program may not be used in any manner that
 competes with the business of Gaussian, Inc. or will provide
 assistance to any competitor of Gaussian, Inc.  The licensee
 of this program is prohibited from giving any competitor of
 Gaussian, Inc. access to this program.  By using this program,
 the user acknowledges that Gaussian, Inc. is engaged in the
 business of creating and licensing software in the field of
 computational chemistry and represents and warrants to the
 licensee that it is not a competitor of Gaussian, Inc. and that
 it will not use this program in any manner prohibited above.
 ---------------------------------------------------------------
  

 Cite this work as:
 Gaussian 16, Revision A.03,
 M. J. Frisch, G. W. Trucks, H. B. Schlegel, G. E. Scuseria, 
 M. A. Robb, J. R. Cheeseman, G. Scalmani, V. Barone, 
 G. A. Petersson, H. Nakatsuji, X. Li, M. Caricato, A. V. Marenich, 
 J. Bloino, B. G. Janesko, R. Gomperts, B. Mennucci, H. P. Hratchian, 
 J. V. Ortiz, A. F. Izmaylov, J. L. Sonnenberg, D. Williams-Young, 
 F. Ding, F. Lipparini, F. Egidi, J. Goings, B. Peng, A. Petrone, 
 T. Henderson, D. Ranasinghe, V. G. Zakrzewski, J. Gao, N. Rega, 
 G. Zheng, W. Liang, M. Hada, M. Ehara, K. Toyota, R. Fukuda, 
 J. Hasegawa, M. Ishida, T. Nakajima, Y. Honda, O. Kitao, H. Nakai, 
 T. Vreven, K. Throssell, J. A. Montgomery, Jr., J. E. Peralta, 
 F. Ogliaro, M. J. Bearpark, J. J. Heyd, E. N. Brothers, K. N. Kudin, 
 V. N. Staroverov, T. A. Keith, R. Kobayashi, J. Normand, 
 K. Raghavachari, A. P. Rendell, J. C. Burant, S. S. Iyengar, 
 J. Tomasi, M. Cossi, J. M. Millam, M. Klene, C. Adamo, R. Cammi, 
 J. W. Ochterski, R. L. Martin, K. Morokuma, O. Farkas, 
 J. B. Foresman, and D. J. Fox, Gaussian, Inc., Wallingford CT, 2016.
 
 ******************************************
 Gaussian 16:  ES64L-G16RevA.03 25-Dec-2016
                10-Jun-2022 
 ******************************************
 %nprocshared=12
 Will use up to   12 processors via shared memory.
 %chk=checkpoint.chk
 %mem=12GB
 --------------------------
 # sp B3LYP/Def2TZVP NoSymm
 --------------------------
 1/38=1,172=1/1;
 2/12=2,15=1,17=6,18=5,40=1/2;
 3/5=44,7=101,11=2,25=1,30=1,74=-5/1,2,3;
 4//1;
 5/5=2,38=5/2;
 6/7=2,8=2,9=2,10=2,28=1/1;
 99/5=1,9=1/99;
 ---------------------------
 ts_initalOpt_zmat_AlignedSp
 ---------------------------
 Symbolic Z-matrix:
 Charge =  0 Multiplicity = 1
 C
 C                    1    R2
 C                    1    R3       2    A3
 C                    2    R4       1    A4       3    D4       0
 O                    3    R5       1    A5       2    D5       0
 H                    3    R6       1    A6       5    D6       0
 H                    3    R7       1    A7       5    D7       0
 H                    4    R8       2    A8       1    D8       0
 H                    4    R9       2    A9       8    D9       0
 H                    4    R10      2    A10      8    D10      0
 C                    5    R11      3    A11      1    D11      0
 C                    11   R12      5    A12      3    D12      0
 H                    11   R13      5    A13      12   D13      0
 H                    11   R14      5    A14      12   D14      0
 C                    12   R15      11   A15      5    D15      0
 H                    12   R16      11   A16      15   D16      0
 C                    15   R17      12   A17      11   D17      0
 H                    15   R18      12   A18      17   D18      0
 H                    17   R19      15   A19      12   D19      0
 H                    17   R20      15   A20      19   D20      0
 H                    17   R21      15   A21      19   D21      0
       Variables:
  R2                    1.24932                  
  R3                    1.46792                  
  R4                    1.4831                   
  R5                    1.43347                  
  R6                    1.09584                  
  R7                    1.09482                  
  R8                    1.09215                  
  R9                    1.09277                  
  R10                   1.09284                  
  R11                   1.43422                  
  R12                   1.49891                  
  R13                   1.09287                  
  R14                   1.09488                  
  R15                   1.3793                   
  R16                   1.08844                  
  R17                   1.40895                  
  R18                   1.08616                  
  R19                   1.33997                  
  R20                   1.08626                  
  R21                   1.08528                  
  A3                  153.08873                  
  A4                  146.20989                  
  A5                  110.65931                  
  A6                  111.57692                  
  A7                  109.90137                  
  A8                  111.74768                  
  A9                  110.9281                   
  A10                 110.62195                  
  A11                 112.65145                  
  A12                 109.43257                  
  A13                 104.84936                  
  A14                 110.89326                  
  A15                 129.62783                  
  A16                 111.38959                  
  A17                 124.14998                  
  A18                 115.66852                  
  A19                  94.35546                  
  A20                 119.46784                  
  A21                 117.6781                   
  D4                  -23.29377                  
  D5                 -114.64186                  
  D6                 -121.88088                  
  D7                  118.30225                  
  D8                    2.06209                  
  D9                 -120.83328                  
  D10                 120.80071                  
  D11                 -14.14424                  
  D12                 -35.40934                  
  D13                -119.08782                  
  D14                 124.29216                  
  D15                 146.13262                  
  D16                 156.49386                  
  D17                 -41.09774                  
  D18                -156.05305                  
  D19                 -60.29725                  
  D20                 101.20729                  
  D21                -115.04054                  
 
                          Input orientation:                          
 ---------------------------------------------------------------------
 Center     Atomic      Atomic             Coordinates (Angstroms)
 Number     Number       Type             X           Y           Z
 ---------------------------------------------------------------------
      1          6           0        0.000000    0.000000    0.000000
      2          6           0        0.000000    0.000000    1.249316
      3          6           0        0.664393    0.000000   -1.308953
      4          6           0        0.757597   -0.326175    2.481892
      5          8           0        0.394615    1.219142   -2.013049
      6          1           0        0.345552   -0.849993   -1.922725
      7          1           0        1.749153   -0.065722   -1.176291
      8          1           0        1.752581   -0.714814    2.254396
      9          1           0        0.228190   -1.072316    3.079508
     10          1           0        0.870293    0.560685    3.110443
     11          6           0       -0.683393    1.965635   -1.431987
     12          6           0       -1.717322    1.018408   -0.902380
     13          1           0       -1.085094    2.563448   -2.253942
     14          1           0       -0.313920    2.648443   -0.659955
     15          6           0       -2.536362    1.137272    0.201025
     16          1           0       -2.086778    0.356714   -1.683633
     17          6           0       -2.117763    1.648746    1.445336
     18          1           0       -3.394431    0.471731    0.223914
     19          1           0       -1.178554    0.711047    1.630045
     20          1           0       -1.462502    2.514633    1.474048
     21          1           0       -2.828147    1.623680    2.265440
 ---------------------------------------------------------------------
                    Distance matrix (angstroms):
                    1          2          3          4          5
     1  C    0.000000
     2  C    1.249316   0.000000
     3  C    1.467916   2.643134   0.000000
     4  C    2.615364   1.483100   3.805993   0.000000
     5  O    2.386293   3.505004   1.433471   4.766996   0.000000
     6  H    2.130438   3.302081   1.095839   4.454752   2.071687
     7  H    2.108914   2.991225   1.094816   3.799121   2.045926
     8  H    2.943603   2.143055   3.793753   1.092148   4.878047
     9  H    3.268838   2.133433   4.538582   1.092769   5.586825
    10  H    3.278206   2.129688   4.459577   1.092840   5.187485
    11  C    2.526130   3.394132   2.386501   4.758917   1.434219
    12  C    2.191037   2.935328   2.622027   4.403002   2.394610
    13  H    3.581752   4.474540   3.244222   5.845815   2.013635
    14  H    2.747423   3.279955   2.896989   4.457320   2.091838
    15  C    2.786921   2.970763   3.717291   4.265465   3.674159
    16  H    2.704904   3.617192   2.799388   5.090030   2.647566
    17  C    3.048324   2.691042   4.247925   3.639019   4.296164
    18  H    3.434361   3.577170   4.364203   4.793168   4.463126
    19  H    2.133453   1.428122   3.541151   2.355877   4.000644
    20  H    3.261152   2.917670   4.311862   3.743632   4.157767
    21  H    3.970764   3.415737   5.254565   4.087340   5.371713
                    6          7          8          9         10
     6  H    0.000000
     7  H    1.772665   0.000000
     8  H    4.409800   3.491553   0.000000
     9  H    5.008547   4.630161   1.769855   0.000000
    10  H    5.253394   4.420506   1.771482   1.754978   0.000000
    11  C    3.037649   3.179476   5.167997   5.514864   5.002149
    12  C    2.964368   3.642364   5.000952   4.900162   4.796667
    13  H    3.715916   4.013330   6.254959   6.587047   6.050721
    14  H    3.777373   3.448124   4.906665   5.302972   4.469562
    15  C    4.094504   4.659381   5.103095   4.561873   4.516908
    16  H    2.725718   3.892328   5.603295   5.485318   5.636402
    17  C    4.863687   4.976481   4.606577   3.946922   3.589559
    18  H    4.510265   5.357788   5.658841   4.864349   5.150518
    19  H    4.169163   4.129208   3.318802   2.694487   2.532185
    20  H    5.111539   4.898700   4.623314   4.278101   3.455088
    21  H    5.807938   5.970868   5.143126   4.155995   3.939853
                   11         12         13         14         15
    11  C    0.000000
    12  C    1.498910   0.000000
    13  H    1.092865   2.147925   0.000000
    14  H    1.094884   2.164560   1.772775   0.000000
    15  C    2.605073   1.379296   3.188577   2.822086   0.000000
    16  H    2.149753   1.088436   2.489638   3.072940   2.088858
    17  C    3.230608   2.463625   3.948132   2.947116   1.408950
    18  H    3.510482   2.092866   3.980966   3.874125   1.086164
    19  H    3.345925   2.607282   4.304123   3.121729   2.016781
    20  H    3.058341   2.819757   3.747363   2.427162   2.161223
    21  H    4.288107   3.411065   4.934188   3.991166   2.140920
                   16         17         18         19         20
    16  H    0.000000
    17  C    3.385373   0.000000
    18  H    2.315582   2.122997   0.000000
    19  H    3.454110   1.339966   2.635258   0.000000
    20  H    3.875214   1.086256   3.077114   1.832453   0.000000
    21  H    4.213075   1.085285   2.411533   1.989417   1.812480
                   21
    21  H    0.000000
 Symmetry turned off by external request.
 Stoichiometry    C8H12O
 Framework group  C1[X(C8H12O)]
 Deg. of freedom    57
 Full point group                 C1      NOp   1
 Rotational constants (GHZ):           1.9776427           1.5037763           0.9634887
 Standard basis: def2TZVP (5D, 7F)
   351 basis functions,   555 primitive gaussians,   396 cartesian basis functions
    34 alpha electrons       34 beta electrons
       nuclear repulsion energy       445.2971036084 Hartrees.
 NAtoms=   21 NActive=   21 NUniq=   21 SFac= 1.00D+00 NAtFMM=   60 NAOKFM=F Big=F
 Integral buffers will be    131072 words long.
 Raffenetti 2 integral format.
 Two-electron integral symmetry is turned off.
 One-electron integrals computed using PRISM.
   1 Symmetry operations used in ECPInt.
 ECPInt:  NShTT=   10878 NPrTT=   32112 LenC2=   10638 LenP2D=   24940.
 LDataN:  DoStor=T MaxTD1= 6 Len=  172
 NBasis=   351 RedAO= T EigKep=  2.24D-05  NBF=   351
 NBsUse=   351 1.00D-06 EigRej= -1.00D+00 NBFU=   351
 ExpMin= 9.52D-02 ExpMax= 2.70D+04 ExpMxC= 9.22D+02 IAcc=3 IRadAn=         5 AccDes= 0.00D+00
 Harris functional with IExCor=  402 and IRadAn=       5 diagonalized for initial guess.
 HarFok:  IExCor=  402 AccDes= 0.00D+00 IRadAn=         5 IDoV= 1 UseB2=F ITyADJ=14
 ICtDFT=  3500011 ScaDFX=  1.000000  1.000000  1.000000  1.000000
 FoFCou: FMM=F IPFlag=           0 FMFlag=      100000 FMFlg1=           0
         NFxFlg=           0 DoJE=T BraDBF=F KetDBF=T FulRan=T
         wScrn=  0.000000 ICntrl=       500 IOpCl=  0 I1Cent=   200000004 NGrid=           0
         NMat0=    1 NMatS0=      1 NMatT0=    0 NMatD0=    1 NMtDS0=    0 NMtDT0=    0
 Symmetry not used in FoFCou.
 Requested convergence on RMS density matrix=1.00D-08 within 128 cycles.
 Requested convergence on MAX density matrix=1.00D-06.
 Requested convergence on             energy=1.00D-06.
 No special actions if energy rises.
 Integral accuracy reduced to 1.0D-05 until final iterations.
 Initial convergence to 1.0D-05 achieved.  Increase integral accuracy.
 SCF Done:  E(RB3LYP) =  -387.287091788     A.U. after   14 cycles
            NFock= 14  Conv=0.77D-08     -V/T= 2.0053

 **********************************************************************

            Population analysis using the SCF density.

 **********************************************************************

 Alpha  occ. eigenvalues --  -19.12394 -10.23203 -10.21740 -10.18669 -10.18060
 Alpha  occ. eigenvalues --  -10.17854 -10.17434 -10.17270 -10.17202  -1.02973
 Alpha  occ. eigenvalues --   -0.81625  -0.78807  -0.74093  -0.72010  -0.67378
 Alpha  occ. eigenvalues --   -0.62652  -0.54638  -0.51817  -0.50439  -0.47054
 Alpha  occ. eigenvalues --   -0.46041  -0.45696  -0.43770  -0.42776  -0.42261
 Alpha  occ. eigenvalues --   -0.40561  -0.39097  -0.37860  -0.36140  -0.32550
 Alpha  occ. eigenvalues --   -0.27330  -0.26575  -0.25257  -0.22952
 Alpha virt. eigenvalues --   -0.01998   0.01430   0.02566   0.03597   0.05248
 Alpha virt. eigenvalues --    0.06212   0.07183   0.09067   0.09704   0.10138
 Alpha virt. eigenvalues --    0.11045   0.11751   0.12720   0.13050   0.14145
 Alpha virt. eigenvalues --    0.15284   0.16506   0.17477   0.18272   0.18967
 Alpha virt. eigenvalues --    0.20056   0.20306   0.21108   0.22049   0.23976
 Alpha virt. eigenvalues --    0.24577   0.26246   0.27837   0.29049   0.30057
 Alpha virt. eigenvalues --    0.30945   0.32285   0.33242   0.33653   0.34336
 Alpha virt. eigenvalues --    0.36497   0.37900   0.38199   0.39098   0.39871
 Alpha virt. eigenvalues --    0.40359   0.40967   0.41900   0.42151   0.43420
 Alpha virt. eigenvalues --    0.43646   0.44932   0.45090   0.45559   0.45965
 Alpha virt. eigenvalues --    0.46828   0.47265   0.48084   0.49318   0.49532
 Alpha virt. eigenvalues --    0.52381   0.52904   0.53258   0.54973   0.57159
 Alpha virt. eigenvalues --    0.58090   0.59242   0.60708   0.63304   0.64715
 Alpha virt. eigenvalues --    0.65606   0.67201   0.69739   0.73442   0.73757
 Alpha virt. eigenvalues --    0.76514   0.77621   0.79569   0.81502   0.82974
 Alpha virt. eigenvalues --    0.84092   0.85831   0.86334   0.89354   0.90241
 Alpha virt. eigenvalues --    0.91851   0.92586   0.95203   0.96662   0.97686
 Alpha virt. eigenvalues --    0.98954   0.99881   1.02124   1.02804   1.04602
 Alpha virt. eigenvalues --    1.06883   1.07591   1.09278   1.11832   1.13702
 Alpha virt. eigenvalues --    1.14370   1.17004   1.18303   1.19913   1.20517
 Alpha virt. eigenvalues --    1.22561   1.23620   1.26115   1.27618   1.28256
 Alpha virt. eigenvalues --    1.31572   1.32924   1.39529   1.41104   1.43205
 Alpha virt. eigenvalues --    1.46731   1.47057   1.49549   1.50325   1.51659
 Alpha virt. eigenvalues --    1.51982   1.52247   1.53059   1.54844   1.55653
 Alpha virt. eigenvalues --    1.57383   1.59108   1.59604   1.59942   1.61295
 Alpha virt. eigenvalues --    1.62830   1.64386   1.66707   1.67324   1.69103
 Alpha virt. eigenvalues --    1.71010   1.72205   1.74724   1.75773   1.78083
 Alpha virt. eigenvalues --    1.83460   1.85324   1.86105   1.87654   1.90247
 Alpha virt. eigenvalues --    1.91904   1.93028   1.96522   1.96875   1.99275
 Alpha virt. eigenvalues --    2.00547   2.02274   2.03868   2.07191   2.08750
 Alpha virt. eigenvalues --    2.10518   2.12796   2.13737   2.17035   2.18548
 Alpha virt. eigenvalues --    2.18964   2.21519   2.24913   2.25432   2.27451
 Alpha virt. eigenvalues --    2.29580   2.31871   2.33177   2.34811   2.35658
 Alpha virt. eigenvalues --    2.36458   2.39411   2.41173   2.42646   2.43541
 Alpha virt. eigenvalues --    2.47118   2.49081   2.50196   2.51218   2.52160
 Alpha virt. eigenvalues --    2.53382   2.53983   2.56714   2.57532   2.59507
 Alpha virt. eigenvalues --    2.60361   2.61109   2.63348   2.66061   2.66509
 Alpha virt. eigenvalues --    2.68673   2.70037   2.71078   2.74083   2.74917
 Alpha virt. eigenvalues --    2.76001   2.78172   2.79207   2.79903   2.80650
 Alpha virt. eigenvalues --    2.81662   2.85002   2.87881   2.88805   2.91187
 Alpha virt. eigenvalues --    2.93065   2.94416   2.95577   2.96400   2.99475
 Alpha virt. eigenvalues --    3.01071   3.02849   3.04302   3.05650   3.07318
 Alpha virt. eigenvalues --    3.08562   3.09909   3.10785   3.12968   3.14167
 Alpha virt. eigenvalues --    3.15223   3.17558   3.19080   3.20768   3.21240
 Alpha virt. eigenvalues --    3.22531   3.24150   3.25227   3.27108   3.27663
 Alpha virt. eigenvalues --    3.27766   3.28570   3.30827   3.34066   3.34800
 Alpha virt. eigenvalues --    3.36452   3.37178   3.38441   3.38683   3.41331
 Alpha virt. eigenvalues --    3.43502   3.45466   3.45769   3.46535   3.48775
 Alpha virt. eigenvalues --    3.52439   3.52760   3.56394   3.56980   3.58241
 Alpha virt. eigenvalues --    3.58734   3.61842   3.65185   3.68205   3.68932
 Alpha virt. eigenvalues --    3.71079   3.72521   3.73799   3.75823   3.77774
 Alpha virt. eigenvalues --    3.83167   3.85568   3.87576   3.88803   3.90231
 Alpha virt. eigenvalues --    3.91994   3.96547   3.99409   4.01208   4.03717
 Alpha virt. eigenvalues --    4.07473   4.14492   4.15879   4.16066   4.19065
 Alpha virt. eigenvalues --    4.22801   4.25566   4.28362   4.34734   4.36444
 Alpha virt. eigenvalues --    4.38780   4.42525   4.45913   4.48951   4.50477
 Alpha virt. eigenvalues --    4.55313   4.60982   4.63370   4.67141   4.72341
 Alpha virt. eigenvalues --    4.73605   4.77744   4.78720   4.84076   4.86867
 Alpha virt. eigenvalues --    4.95906   5.05988   5.09763   5.14538   5.33936
 Alpha virt. eigenvalues --    5.38868   5.40459   5.45080   5.78064   5.82890
 Alpha virt. eigenvalues --    5.84133   6.13643   6.16282   6.72337   6.79541
 Alpha virt. eigenvalues --    6.88324   7.17586   7.27000  22.31455  22.34623
 Alpha virt. eigenvalues --   22.40798  22.46375  22.55721  22.59443  22.80225
 Alpha virt. eigenvalues --   23.43605  44.14967
          Condensed to atoms (all electrons):
               1          2          3          4          5          6
     1  C    5.552845   0.491917   0.356033  -0.064401  -0.101039  -0.097881
     2  C    0.491917   5.575838  -0.076617   0.273722   0.007495   0.041078
     3  C    0.356033  -0.076617   4.634110  -0.008652   0.357925   0.400724
     4  C   -0.064401   0.273722  -0.008652   4.903051  -0.000460  -0.000130
     5  O   -0.101039   0.007495   0.357925  -0.000460   7.992063  -0.060264
     6  H   -0.097881   0.041078   0.400724  -0.000130  -0.060264   0.696473
     7  H    0.005728  -0.056226   0.392052   0.001074  -0.042863  -0.075629
     8  H    0.009713  -0.066459   0.001427   0.411604  -0.000057  -0.000306
     9  H   -0.008292  -0.055827  -0.000293   0.429903  -0.000010   0.000120
    10  H   -0.008286  -0.048422   0.000257   0.413253   0.000047  -0.000058
    11  C   -0.080669  -0.010629  -0.054914  -0.001268   0.334531   0.003300
    12  C    0.121766   0.070064  -0.082408   0.007484  -0.098532   0.013327
    13  H    0.005961   0.004394   0.001637   0.000055  -0.044026   0.002462
    14  H    0.035700  -0.034257   0.001253  -0.000053  -0.044975  -0.004078
    15  C   -0.069134  -0.038269  -0.006776   0.005584   0.012121  -0.000529
    16  H    0.002461  -0.008481   0.011338  -0.000096   0.010118  -0.007922
    17  C   -0.066592  -0.103451   0.002831  -0.003466  -0.000344  -0.000083
    18  H   -0.005746   0.004464  -0.001430   0.000095  -0.000414   0.000196
    19  H    0.028269   0.155608   0.013544  -0.046422   0.000505  -0.000400
    20  H   -0.006881   0.001703  -0.001364   0.001296  -0.000278  -0.000019
    21  H    0.006151   0.001160   0.000023  -0.000403  -0.000009  -0.000010
               7          8          9         10         11         12
     1  C    0.005728   0.009713  -0.008292  -0.008286  -0.080669   0.121766
     2  C   -0.056226  -0.066459  -0.055827  -0.048422  -0.010629   0.070064
     3  C    0.392052   0.001427  -0.000293   0.000257  -0.054914  -0.082408
     4  C    0.001074   0.411604   0.429903   0.413253  -0.001268   0.007484
     5  O   -0.042863  -0.000057  -0.000010   0.000047   0.334531  -0.098532
     6  H   -0.075629  -0.000306   0.000120  -0.000058   0.003300   0.013327
     7  H    0.671277   0.001503  -0.000183   0.000009  -0.002705   0.004651
     8  H    0.001503   0.572843  -0.029527  -0.026860  -0.000052  -0.000476
     9  H   -0.000183  -0.029527   0.569877  -0.034143   0.000004   0.000029
    10  H    0.000009  -0.026860  -0.034143   0.577857   0.000453  -0.000808
    11  C   -0.002705  -0.000052   0.000004   0.000453   4.698267   0.307728
    12  C    0.004651  -0.000476   0.000029  -0.000808   0.307728   5.221195
    13  H   -0.000975  -0.000004  -0.000000  -0.000008   0.380796  -0.015721
    14  H    0.004844   0.000062   0.000012  -0.000001   0.400832  -0.077578
    15  C    0.000115  -0.000742   0.000064   0.001241  -0.002493   0.462593
    16  H    0.001161   0.000013   0.000013  -0.000014  -0.054025   0.395573
    17  C   -0.000623  -0.000841   0.003403   0.004414   0.006144  -0.070517
    18  H   -0.000027  -0.000002   0.000001   0.000019   0.007575  -0.035049
    19  H   -0.000506   0.006967  -0.004682  -0.002628   0.011041  -0.066888
    20  H    0.000097  -0.000108  -0.000059   0.000330  -0.002777   0.006873
    21  H    0.000011   0.000020  -0.000070  -0.000321  -0.000981   0.009428
              13         14         15         16         17         18
     1  C    0.005961   0.035700  -0.069134   0.002461  -0.066592  -0.005746
     2  C    0.004394  -0.034257  -0.038269  -0.008481  -0.103451   0.004464
     3  C    0.001637   0.001253  -0.006776   0.011338   0.002831  -0.001430
     4  C    0.000055  -0.000053   0.005584  -0.000096  -0.003466   0.000095
     5  O   -0.044026  -0.044975   0.012121   0.010118  -0.000344  -0.000414
     6  H    0.002462  -0.004078  -0.000529  -0.007922  -0.000083   0.000196
     7  H   -0.000975   0.004844   0.000115   0.001161  -0.000623  -0.000027
     8  H   -0.000004   0.000062  -0.000742   0.000013  -0.000841  -0.000002
     9  H   -0.000000   0.000012   0.000064   0.000013   0.003403   0.000001
    10  H   -0.000008  -0.000001   0.001241  -0.000014   0.004414   0.000019
    11  C    0.380796   0.400832  -0.002493  -0.054025   0.006144   0.007575
    12  C   -0.015721  -0.077578   0.462593   0.395573  -0.070517  -0.035049
    13  H    0.642332  -0.061867   0.000803  -0.012100  -0.001205  -0.000047
    14  H   -0.061867   0.696849  -0.007499   0.012713   0.011422  -0.000861
    15  C    0.000803  -0.007499   5.016953  -0.057683   0.450303   0.407942
    16  H   -0.012100   0.012713  -0.057683   0.616274   0.011705  -0.014926
    17  C   -0.001205   0.011422   0.450303   0.011705   5.130218  -0.044226
    18  H   -0.000047  -0.000861   0.407942  -0.014926  -0.044226   0.591146
    19  H   -0.000832  -0.000644  -0.047040   0.000734   0.208543  -0.002639
    20  H    0.000392  -0.000116  -0.039861  -0.000326   0.419018   0.006134
    21  H   -0.000015   0.000342  -0.042116  -0.000095   0.399234  -0.009794
              19         20         21
     1  C    0.028269  -0.006881   0.006151
     2  C    0.155608   0.001703   0.001160
     3  C    0.013544  -0.001364   0.000023
     4  C   -0.046422   0.001296  -0.000403
     5  O    0.000505  -0.000278  -0.000009
     6  H   -0.000400  -0.000019  -0.000010
     7  H   -0.000506   0.000097   0.000011
     8  H    0.006967  -0.000108   0.000020
     9  H   -0.004682  -0.000059  -0.000070
    10  H   -0.002628   0.000330  -0.000321
    11  C    0.011041  -0.002777  -0.000981
    12  C   -0.066888   0.006873   0.009428
    13  H   -0.000832   0.000392  -0.000015
    14  H   -0.000644  -0.000116   0.000342
    15  C   -0.047040  -0.039861  -0.042116
    16  H    0.000734  -0.000326  -0.000095
    17  C    0.208543   0.419018   0.399234
    18  H   -0.002639   0.006134  -0.009794
    19  H    0.612490  -0.033755  -0.005149
    20  H   -0.033755   0.552570  -0.026622
    21  H   -0.005149  -0.026622   0.550552
 Mulliken charges:
               1
     1  C   -0.107621
     2  C   -0.128804
     3  C    0.059301
     4  C   -0.321769
     5  O   -0.321532
     6  H    0.089628
     7  H    0.097215
     8  H    0.121283
     9  H    0.129661
    10  H    0.123668
    11  C    0.059842
    12  C   -0.172731
    13  H    0.097969
    14  H    0.067901
    15  C   -0.045578
    16  H    0.093565
    17  C   -0.355886
    18  H    0.097588
    19  H    0.173885
    20  H    0.123752
    21  H    0.118662
 Sum of Mulliken charges =  -0.00000
 Mulliken charges with hydrogens summed into heavy atoms:
               1
     1  C   -0.107621
     2  C   -0.128804
     3  C    0.246145
     4  C    0.052843
     5  O   -0.321532
    11  C    0.225712
    12  C   -0.079167
    15  C    0.052010
    17  C    0.060413
 Electronic spatial extent (au):  <R**2>=           1509.8010
 Charge=             -0.0000 electrons
 Dipole moment (field-independent basis, Debye):
    X=             -0.1273    Y=             -0.6000    Z=              1.7129  Tot=              1.8194
 Quadrupole moment (field-independent basis, Debye-Ang):
   XX=            -55.4275   YY=            -56.4392   ZZ=            -55.8882
   XY=             -0.7629   XZ=              1.7805   YZ=              2.7338
 Traceless Quadrupole moment (field-independent basis, Debye-Ang):
   XX=              0.4908   YY=             -0.5209   ZZ=              0.0301
   XY=             -0.7629   XZ=              1.7805   YZ=              2.7338
 Octapole moment (field-independent basis, Debye-Ang**2):
  XXX=            102.3233  YYY=           -121.9407  ZZZ=              7.3113  XYY=             34.8422
  XXY=            -49.4051  XXZ=             -0.7993  XZZ=             26.7001  YZZ=            -46.6504
  YYZ=             -1.7232  XYZ=              2.6486
 Hexadecapole moment (field-independent basis, Debye-Ang**3):
 XXXX=           -706.6884 YYYY=           -503.1483 ZZZZ=           -868.1592 XXXY=            206.1188
 XXXZ=              3.4481 YYYX=            189.9076 YYYZ=             67.4316 ZZZX=             27.5648
 ZZZY=             84.8998 XXYY=           -225.3046 XXZZ=           -252.5796 YYZZ=           -222.4020
 XXYZ=             28.9639 YYXZ=             12.3655 ZZXY=             48.3462
 N-N= 4.452971036084D+02 E-N=-1.791227733012D+03  KE= 3.852537244471D+02
 1\1\GINC-BHC0034\SP\RB3LYP\def2TZVP\C8H12O1\DHANAWAY\10-Jun-2022\0\\# 
 sp B3LYP/Def2TZVP NoSymm\\ts_initalOpt_zmat_AlignedSp\\0,1\C\C,1,1.249
 31596\C,1,1.46791565,2,153.08872986\C,2,1.48310042,1,146.20988899,3,-2
 3.29376872,0\O,3,1.43347089,1,110.65931268,2,-114.64186307,0\H,3,1.095
 8394,1,111.57691673,5,-121.8808798,0\H,3,1.09481608,1,109.90136614,5,1
 18.30225424,0\H,4,1.09214811,2,111.74768094,1,2.06209135,0\H,4,1.09276
 911,2,110.92810463,8,-120.83328229,0\H,4,1.09283966,2,110.62194836,8,1
 20.80070976,0\C,5,1.43421904,3,112.65144954,1,-14.14424084,0\C,11,1.49
 890992,5,109.43257058,3,-35.40933709,0\H,11,1.09286514,5,104.84936181,
 12,-119.08781596,0\H,11,1.09488413,5,110.89326115,12,124.29215938,0\C,
 12,1.37929571,11,129.62783217,5,146.13262476,0\H,12,1.08843567,11,111.
 38958777,15,156.49385751,0\C,15,1.40895003,12,124.14997777,11,-41.0977
 3803,0\H,15,1.08616371,12,115.66851569,17,-156.05305452,0\H,17,1.33996
 608,15,94.35546446,12,-60.29725014,0\H,17,1.08625619,15,119.46783623,1
 9,101.20729341,0\H,17,1.0852847,15,117.67810113,19,-115.04054066,0\\Ve
 rsion=ES64L-G16RevA.03\HF=-387.2870918\RMSD=7.660e-09\Dipole=-0.050101
 5,-0.2360458,0.6739017\Quadrupole=0.3648919,-0.3872723,0.0223804,-0.56
 71769,1.3237409,2.0325084\PG=C01 [X(C8H12O1)]\\@


 Money is a good servant but a bad master.
                        -- French Proverb
 Job cpu time:       0 days  0 hours 18 minutes 10.9 seconds.
 Elapsed time:       0 days  0 hours  1 minutes 41.2 seconds.
 File lengths (MBytes):  RWF=     71 Int=      0 D2E=      0 Chk=     32 Scr=      1
 Normal termination of Gaussian 16 at Fri Jun 10 11:31:47 2022.
