 Entering Gaussian System, Link 0=g16
 Input=int_zmat_field_N75.gjf
 Output=int_zmat_field_N75.out
 Initial command:
 /software/gaussian/g16-a03/l1.exe "/local_scratch/11171948/Gau-20624.inp" -scrdir="/local_scratch/11171948/"
 Entering Link 1 = /software/gaussian/g16-a03/l1.exe PID=     20625.
  
 Copyright (c) 1988,1990,1992,1993,1995,1998,2003,2009,2016,
            Gaussian, Inc.  All Rights Reserved.
  
 This is part of the Gaussian(R) 16 program.  It is based on
 the Gaussian(R) 09 system (copyright 2009, Gaussian, Inc.),
 the Gaussian(R) 03 system (copyright 2003, Gaussian, Inc.),
 the Gaussian(R) 98 system (copyright 1998, Gaussian, Inc.),
 the Gaussian(R) 94 system (copyright 1995, Gaussian, Inc.),
 the Gaussian 92(TM) system (copyright 1992, Gaussian, Inc.),
 the Gaussian 90(TM) system (copyright 1990, Gaussian, Inc.),
 the Gaussian 88(TM) system (copyright 1988, Gaussian, Inc.),
 the Gaussian 86(TM) system (copyright 1986, Carnegie Mellon
 University), and the Gaussian 82(TM) system (copyright 1983,
 Carnegie Mellon University). Gaussian is a federally registered
 trademark of Gaussian, Inc.
  
 This software contains proprietary and confidential information,
 including trade secrets, belonging to Gaussian, Inc.
  
 This software is provided under written license and may be
 used, copied, transmitted, or stored only in accord with that
 written license.
  
 The following legend is applicable only to US Government
 contracts under FAR:
  
                    RESTRICTED RIGHTS LEGEND
  
 Use, reproduction and disclosure by the US Government is
 subject to restrictions as set forth in subparagraphs (a)
 and (c) of the Commercial Computer Software - Restricted
 Rights clause in FAR 52.227-19.
  
 Gaussian, Inc.
 340 Quinnipiac St., Bldg. 40, Wallingford CT 06492
  
  
 ---------------------------------------------------------------
 Warning -- This program may not be used in any manner that
 competes with the business of Gaussian, Inc. or will provide
 assistance to any competitor of Gaussian, Inc.  The licensee
 of this program is prohibited from giving any competitor of
 Gaussian, Inc. access to this program.  By using this program,
 the user acknowledges that Gaussian, Inc. is engaged in the
 business of creating and licensing software in the field of
 computational chemistry and represents and warrants to the
 licensee that it is not a competitor of Gaussian, Inc. and that
 it will not use this program in any manner prohibited above.
 ---------------------------------------------------------------
  

 Cite this work as:
 Gaussian 16, Revision A.03,
 M. J. Frisch, G. W. Trucks, H. B. Schlegel, G. E. Scuseria, 
 M. A. Robb, J. R. Cheeseman, G. Scalmani, V. Barone, 
 G. A. Petersson, H. Nakatsuji, X. Li, M. Caricato, A. V. Marenich, 
 J. Bloino, B. G. Janesko, R. Gomperts, B. Mennucci, H. P. Hratchian, 
 J. V. Ortiz, A. F. Izmaylov, J. L. Sonnenberg, D. Williams-Young, 
 F. Ding, F. Lipparini, F. Egidi, J. Goings, B. Peng, A. Petrone, 
 T. Henderson, D. Ranasinghe, V. G. Zakrzewski, J. Gao, N. Rega, 
 G. Zheng, W. Liang, M. Hada, M. Ehara, K. Toyota, R. Fukuda, 
 J. Hasegawa, M. Ishida, T. Nakajima, Y. Honda, O. Kitao, H. Nakai, 
 T. Vreven, K. Throssell, J. A. Montgomery, Jr., J. E. Peralta, 
 F. Ogliaro, M. J. Bearpark, J. J. Heyd, E. N. Brothers, K. N. Kudin, 
 V. N. Staroverov, T. A. Keith, R. Kobayashi, J. Normand, 
 K. Raghavachari, A. P. Rendell, J. C. Burant, S. S. Iyengar, 
 J. Tomasi, M. Cossi, J. M. Millam, M. Klene, C. Adamo, R. Cammi, 
 J. W. Ochterski, R. L. Martin, K. Morokuma, O. Farkas, 
 J. B. Foresman, and D. J. Fox, Gaussian, Inc., Wallingford CT, 2016.
 
 ******************************************
 Gaussian 16:  ES64L-G16RevA.03 25-Dec-2016
                10-Jun-2022 
 ******************************************
 %nprocshared=12
 Will use up to   12 processors via shared memory.
 %chk=checkpoint.chk
 %mem=12GB
 ----------------------------------------------------------------------
 # Opt=(Z-matrix, MaxStep=10) B3LYP/Def2TZVP geom=allcheckpoint guess=r
 ead Field=read NoSymm freq=noraman pop=none
 ----------------------------------------------------------------------
 1/8=10,10=7,18=40,26=3,29=7,38=1/1,3;
 2/12=2,15=1,29=3,40=1/2;
 3/5=44,7=101,11=2,14=-6,25=1,30=1,71=1,74=-5,116=-2/1,2,3;
 4/5=1/1;
 5/5=2,38=6/2;
 7/29=1,30=1/1,2,3,16;
 1/8=10,10=7,18=40,26=3/3(2);
 2/15=1,29=3/2;
 99//99;
 2/15=1,29=3/2;
 3/5=44,7=101,11=2,14=-2,25=1,30=1,71=1,74=-5/1,2,3;
 4/5=5,16=3,69=1/1;
 5/5=2,38=5/2;
 7/30=1/1,2,3,16;
 1/8=10,18=40,26=3/3(-5);
 2/15=1,29=3/2;
 99/9=1/99;
 Structure from the checkpoint file:  "checkpoint.chk"
 ------------------
 int_zmat_initalOpt
 ------------------
 Charge =  0 Multiplicity = 1
 Z-Matrix found in chk file.
 N
 C,1,R2
 O,1,R3,2,A3
 C,1,R4,2,A4,3,D4,0
 C,1,R5,2,A5,3,D5,0
 C,2,R6,1,A6,3,D6,0
 H,2,R7,1,A7,6,D7,0
 H,2,R8,1,A8,6,D8,0
 H,4,R9,1,A9,2,D9,0
 H,4,R10,1,A10,9,D10,0
 H,4,R11,1,A11,9,D11,0
 H,5,R12,1,A12,2,D12,0
 H,5,R13,1,A13,12,D13,0
 H,5,R14,1,A14,12,D14,0
 H,6,R15,2,A15,1,D15,0
 H,6,R16,2,A16,15,D16,0
 H,6,R17,2,A17,15,D17,0
      Variables:
 R2=1.52228369
 R3=1.35676178
 R4=1.49770189
 R5=1.49980451
 R6=1.51456118
 R7=1.08854197
 R8=1.09500481
 R9=1.08587494
 R10=1.08595193
 R11=1.09303678
 R12=1.08441422
 R13=1.08571484
 R14=1.09276079
 R15=1.08914452
 R16=1.09104468
 R17=1.09206512
 A3=109.56119533
 A4=108.45641249
 A5=111.04723093
 A6=112.55459195
 A7=103.78606627
 A8=108.67154586
 A9=106.99163668
 A10=106.98326149
 A11=111.3964254
 A12=107.63856733
 A13=106.68921789
 A14=111.39151848
 A15=108.70411252
 A16=112.66714798
 A17=109.27556648
 D4=-119.16638058
 D5=121.32596702
 D6=-55.05198956
 D7=118.97869237
 D8=-125.05497672
 D9=178.45763049
 D10=-116.85341095
 D11=121.4394414
 D12=-64.36909185
 D13=-116.7177286
 D14=122.15231769
 D15=47.23553645
 D16=-121.20424729
 D17=119.0442945
 Recover connectivity data from disk.

 GradGradGradGradGradGradGradGradGradGradGradGradGradGradGradGradGradGrad
 Berny optimization.
 Initialization pass.
                       ----------------------------
                       !    Initial Parameters    !
                       ! (Angstroms and Degrees)  !
 ----------------------                            ----------------------
 !      Name          Value   Derivative information (Atomic Units)     !
 ------------------------------------------------------------------------
 !       R2          1.5223   estimate D2E/DX2                          !
 !       R3          1.3568   estimate D2E/DX2                          !
 !       R4          1.4977   estimate D2E/DX2                          !
 !       R5          1.4998   estimate D2E/DX2                          !
 !       R6          1.5146   estimate D2E/DX2                          !
 !       R7          1.0885   estimate D2E/DX2                          !
 !       R8          1.095    estimate D2E/DX2                          !
 !       R9          1.0859   estimate D2E/DX2                          !
 !       R10         1.086    estimate D2E/DX2                          !
 !       R11         1.093    estimate D2E/DX2                          !
 !       R12         1.0844   estimate D2E/DX2                          !
 !       R13         1.0857   estimate D2E/DX2                          !
 !       R14         1.0928   estimate D2E/DX2                          !
 !       R15         1.0891   estimate D2E/DX2                          !
 !       R16         1.091    estimate D2E/DX2                          !
 !       R17         1.0921   estimate D2E/DX2                          !
 !       A3        109.5612   estimate D2E/DX2                          !
 !       A4        108.4564   estimate D2E/DX2                          !
 !       A5        111.0472   estimate D2E/DX2                          !
 !       A6        112.5546   estimate D2E/DX2                          !
 !       A7        103.7861   estimate D2E/DX2                          !
 !       A8        108.6715   estimate D2E/DX2                          !
 !       A9        106.9916   estimate D2E/DX2                          !
 !       A10       106.9833   estimate D2E/DX2                          !
 !       A11       111.3964   estimate D2E/DX2                          !
 !       A12       107.6386   estimate D2E/DX2                          !
 !       A13       106.6892   estimate D2E/DX2                          !
 !       A14       111.3915   estimate D2E/DX2                          !
 !       A15       108.7041   estimate D2E/DX2                          !
 !       A16       112.6671   estimate D2E/DX2                          !
 !       A17       109.2756   estimate D2E/DX2                          !
 !       D4       -119.1664   estimate D2E/DX2                          !
 !       D5        121.326    estimate D2E/DX2                          !
 !       D6        -55.052    estimate D2E/DX2                          !
 !       D7        118.9787   estimate D2E/DX2                          !
 !       D8       -125.055    estimate D2E/DX2                          !
 !       D9        178.4576   estimate D2E/DX2                          !
 !       D10      -116.8534   estimate D2E/DX2                          !
 !       D11       121.4394   estimate D2E/DX2                          !
 !       D12       -64.3691   estimate D2E/DX2                          !
 !       D13      -116.7177   estimate D2E/DX2                          !
 !       D14       122.1523   estimate D2E/DX2                          !
 !       D15        47.2355   estimate D2E/DX2                          !
 !       D16      -121.2042   estimate D2E/DX2                          !
 !       D17       119.0443   estimate D2E/DX2                          !
 ------------------------------------------------------------------------
 Trust Radius=1.00D-01 FncErr=1.00D-07 GrdErr=1.00D-06 EigMax=2.50D+02 EigMin=1.00D-04
 Number of steps in this run=     55 maximum allowed number of steps=    100.
 GradGradGradGradGradGradGradGradGradGradGradGradGradGradGradGradGradGrad

 ---------------------------------------------------------------------------------------------------
                            Z-MATRIX (ANGSTROMS AND DEGREES)
   CD    Cent   Atom    N1       Length/X        N2       Alpha/Y        N3        Beta/Z          J
 ---------------------------------------------------------------------------------------------------
      1      1  N 
      2      2  C        1   1.522284(     1)
      3      3  O        1   1.356762(     2)      2  109.561(    17)
      4      4  C        1   1.497702(     3)      2  108.456(    18)      3 -119.166(    32)      0
      5      5  C        1   1.499805(     4)      2  111.047(    19)      3  121.326(    33)      0
      6      6  C        2   1.514561(     5)      1  112.555(    20)      3  -55.052(    34)      0
      7      7  H        2   1.088542(     6)      1  103.786(    21)      6  118.979(    35)      0
      8      8  H        2   1.095005(     7)      1  108.672(    22)      6 -125.055(    36)      0
      9      9  H        4   1.085875(     8)      1  106.992(    23)      2  178.458(    37)      0
     10     10  H        4   1.085952(     9)      1  106.983(    24)      9 -116.853(    38)      0
     11     11  H        4   1.093037(    10)      1  111.396(    25)      9  121.439(    39)      0
     12     12  H        5   1.084414(    11)      1  107.639(    26)      2  -64.369(    40)      0
     13     13  H        5   1.085715(    12)      1  106.689(    27)     12 -116.718(    41)      0
     14     14  H        5   1.092761(    13)      1  111.392(    28)     12  122.152(    42)      0
     15     15  H        6   1.089145(    14)      2  108.704(    29)      1   47.236(    43)      0
     16     16  H        6   1.091045(    15)      2  112.667(    30)     15 -121.204(    44)      0
     17     17  H        6   1.092065(    16)      2  109.276(    31)     15  119.044(    45)      0
 ---------------------------------------------------------------------------------------------------
                         Z-Matrix orientation:                         
 ---------------------------------------------------------------------
 Center     Atomic      Atomic             Coordinates (Angstroms)
 Number     Number       Type             X           Y           Z
 ---------------------------------------------------------------------
      1          7           0        0.000000    0.000000    0.000000
      2          6           0        0.000000    0.000000    1.522284
      3          8           0        1.278455    0.000000   -0.454262
      4          6           0       -0.692358    1.240538   -0.474147
      5          6           0       -0.727736   -1.195694   -0.538636
      6          6           0        0.801232   -1.146491    2.103214
      7          1           0        0.464654    0.949597    1.781680
      8          1           0       -1.037372    0.001937    1.872841
      9          1           0       -0.654481    1.230026   -1.559310
     10          1           0       -0.117404    2.085068   -0.106058
     11          1           0       -1.725367    1.281088   -0.119212
     12          1           0       -0.174728   -2.079219   -0.239435
     13          1           0       -0.701728   -1.115021   -1.621037
     14          1           0       -1.757753   -1.232313   -0.175524
     15          1           0        1.760698   -1.197256    1.590297
     16          1           0        0.291624   -2.106470    2.007722
     17          1           0        0.972320   -0.964483    3.166327
 ---------------------------------------------------------------------
                    Distance matrix (angstroms):
                    1          2          3          4          5
     1  N    0.000000
     2  C    1.522284   0.000000
     3  O    1.356762   2.353971   0.000000
     4  C    1.497702   2.450313   2.328828   0.000000
     5  C    1.499805   2.491320   2.337008   2.437343   0.000000
     6  C    2.525851   1.514561   2.843039   3.817265   3.052792
     7  H    2.071719   1.088542   2.561922   2.551878   3.377563
     8  H    2.140953   1.095005   3.283058   2.676102   2.710243
     9  H    2.091114   3.381942   2.543686   1.085875   2.632729
    10  H    2.091062   2.648167   2.533215   1.085952   3.364971
    11  H    2.152275   2.704179   3.282742   1.093037   2.702894
    12  H    2.100240   2.730812   2.545789   3.368058   1.084414
    13  H    2.088889   3.408249   2.554557   2.619944   1.085715
    14  H    2.153857   2.736941   3.288595   2.709103   1.092761
    15  H    2.657541   2.130283   2.417892   4.027687   3.274853
    16  H    2.924586   2.181263   3.387096   4.281397   2.890077
    17  H    3.449820   2.139746   3.759336   4.570156   4.082940
                    6          7          8          9         10
     6  C    0.000000
     7  H    2.147150   0.000000
     8  H    2.180006   1.778329   0.000000
     9  H    4.602285   3.534589   3.665307   0.000000
    10  H    4.020914   2.278518   3.016922   1.769601   0.000000
    11  H    4.149219   2.918813   2.465328   1.795351   1.797804
    12  H    2.703790   3.696950   3.088215   3.594904   4.166816
    13  H    4.016208   4.147479   3.683400   2.346336   3.588477
    14  H    3.427597   3.678379   2.497624   3.032357   3.701430
    15  H    1.089145   2.515022   3.057302   4.652399   4.144700
    16  H    1.091045   3.069296   2.495957   4.975042   4.712150
    17  H    1.092065   2.416334   2.577971   5.458388   4.603886
                   11         12         13         14         15
    11  H    0.000000
    12  H    3.702782   0.000000
    13  H    3.007433   1.765285   0.000000
    14  H    2.514241   1.796469   1.794005   0.000000
    15  H    4.606220   2.805647   4.047589   3.936859   0.000000
    16  H    4.479693   2.295199   3.890708   3.119400   1.777384
    17  H    4.807792   3.762654   5.073850   4.323540   1.777524
                   16         17
    16  H    0.000000
    17  H    1.763476   0.000000
 Symmetry turned off by external request.
 Stoichiometry    C4H11NO
 Framework group  C1[X(C4H11NO)]
 Deg. of freedom    45
 Full point group                 C1      NOp   1
 Rotational constants (GHZ):           4.9482971           2.7745988           2.6755520
 Standard basis: def2TZVP (5D, 7F)
 The following finite field(s) will be applied:
 An electric field of             -0.0035 -0.0000  0.0066
   252 basis functions,   394 primitive gaussians,   282 cartesian basis functions
    25 alpha electrons       25 beta electrons
       nuclear repulsion energy       274.9794094507 Hartrees.
 NAtoms=   17 NActive=   17 NUniq=   17 SFac= 1.00D+00 NAtFMM=   60 NAOKFM=F Big=F
 Integral buffers will be    131072 words long.
 Raffenetti 2 integral format.
 Two-electron integral symmetry is turned off.
 One-electron integrals computed using PRISM.
   1 Symmetry operations used in ECPInt.
 ECPInt:  NShTT=    6105 NPrTT=   17556 LenC2=    6069 LenP2D=   14640.
 LDataN:  DoStor=T MaxTD1= 6 Len=  172
 NBasis=   252 RedAO= T EigKep=  3.08D-04  NBF=   252
 NBsUse=   252 1.00D-06 EigRej= -1.00D+00 NBFU=   252
 The nuclear repulsion energy is now       275.1884242596 hartrees.
 Initial guess from the checkpoint file:  "checkpoint.chk"
 B after Tr=    -0.000000   -0.000000   -0.000000
         Rot=    1.000000    0.000000    0.000000    0.000000 Ang=   0.00 deg.
 Requested convergence on RMS density matrix=1.00D-08 within 128 cycles.
 Requested convergence on MAX density matrix=1.00D-06.
 Requested convergence on             energy=1.00D-06.
 No special actions if energy rises.
 SCF Done:  E(RB3LYP) =  -289.046943949     A.U. after    9 cycles
            NFock=  9  Conv=0.99D-08     -V/T= 2.0051
   1 Symmetry operations used in ECPInt.
 ECPInt:  NShTT=    6105 NPrTT=   17556 LenC2=    6069 LenP2D=   14640.
 LDataN:  DoStor=T MaxTD1= 7 Len=  274
 Calling FoFJK, ICntrl=      2127 FMM=F ISym2X=0 I1Cent= 0 IOpClX= 0 NMat=1 NMatS=1 NMatT=0.
 -------------------------------------------------------------------
 Center     Atomic                   Forces (Hartrees/Bohr)
 Number     Number              X              Y              Z
 -------------------------------------------------------------------
      1        7           0.002482085    0.000049344   -0.000313610
      2        6          -0.001700668    0.000185763   -0.000588600
      3        8          -0.000896444   -0.000189680    0.001549829
      4        6           0.000249038    0.000222774   -0.000189788
      5        6           0.000218117   -0.000190235   -0.000182039
      6        6          -0.000157187   -0.000080619   -0.000040547
      7        1           0.000092118    0.000052068   -0.000008619
      8        1          -0.000448877   -0.000045781    0.000155553
      9        1           0.000064183    0.000100811    0.000036523
     10        1           0.000116031    0.000089488   -0.000185025
     11        1          -0.000270026   -0.000076157    0.000024187
     12        1           0.000119038   -0.000108001   -0.000191771
     13        1           0.000081111   -0.000121907    0.000024312
     14        1          -0.000242230    0.000072553    0.000034682
     15        1           0.000101902    0.000037296   -0.000224504
     16        1          -0.000001650   -0.000096615   -0.000193603
     17        1           0.000193458    0.000098898    0.000293020
 -------------------------------------------------------------------
 Cartesian Forces:  Max     0.002482085 RMS     0.000521221
 -----------------------------------------------------------------------------------------------
                       Internal Coordinate Forces (Hartree/Bohr or radian)
  Cent   Atom   N1       Length/X         N2         Alpha/Y        N3         Beta/Z          J
 -----------------------------------------------------------------------------------------------
      1  N 
      2  C        1  -0.000607(     1)
      3  O        1  -0.001364(     2)      2  -0.002975(    17)
      4  C        1   0.000305(     3)      2   0.000729(    18)      3   0.000724(    32)     0
      5  C        1   0.000305(     4)      2   0.000694(    19)      3  -0.000785(    33)     0
      6  C        2   0.000040(     5)      1  -0.001040(    20)      3   0.000338(    34)     0
      7  H        2   0.000083(     6)      1  -0.000060(    21)      6  -0.000120(    35)     0
      8  H        2   0.000475(     7)      1   0.000008(    22)      6   0.000091(    36)     0
      9  H        4  -0.000035(     8)      1   0.000113(    23)      2   0.000028(    37)     0
     10  H        4   0.000068(     9)      1   0.000127(    24)      9   0.000426(    38)     0
     11  H        4   0.000260(    10)      1  -0.000091(    25)      9  -0.000189(    39)     0
     12  H        5   0.000096(    11)      1   0.000147(    26)      2  -0.000010(    40)     0
     13  H        5  -0.000031(    12)      1   0.000124(    27)     12   0.000259(    41)     0
     14  H        5   0.000237(    13)      1  -0.000087(    28)     12   0.000161(    42)     0
     15  H        6   0.000194(    14)      2  -0.000266(    29)      1  -0.000109(    43)     0
     16  H        6   0.000103(    15)      2  -0.000093(    30)     15   0.000352(    44)     0
     17  H        6   0.000332(    16)      2   0.000066(    31)     15  -0.000288(    45)     0
 -----------------------------------------------------------------------------------------------
 Internal  Forces:  Max     0.002974744 RMS     0.000593786

 GradGradGradGradGradGradGradGradGradGradGradGradGradGradGradGradGradGrad
 Berny optimization.
 Search for a local minimum.
 Step number   1 out of a maximum of   55
 All quantities printed in internal units (Hartrees-Bohrs-Radians)
 Second derivative matrix not updated -- first step.
 ITU=  0
     Eigenvalues ---   -0.01335   0.01898   0.03166   0.03606   0.06814
     Eigenvalues ---    0.08779   0.09073   0.09234   0.12539   0.12683
     Eigenvalues ---    0.13892   0.14097   0.17035   0.22323   0.22384
     Eigenvalues ---    0.23220   0.24028   0.24268   0.30148   0.30896
     Eigenvalues ---    0.31631   0.31825   0.32293   0.32396   0.32617
     Eigenvalues ---    0.34240   0.34464   0.34496   0.34575   0.34691
     Eigenvalues ---    0.34911   0.34948   0.35039   0.35285   0.35294
     Eigenvalues ---    0.35313   0.35466   0.37910   0.38739   0.40309
     Eigenvalues ---    0.40511   0.42143   0.53458   0.53761   0.61114
 RFO step:  Lambda=-1.33596358D-02 EMin=-1.33523491D-02
 I=     1 Eig=   -1.34D-02 Dot1=  7.78D-05
 I=     1 Stepn=  2.50D-01 RXN=   2.50D-01 EDone=F
 Mixed    1 eigenvectors in step.  Raw Step.Grad=  7.78D-05.
 RFO eigenvector is Hessian eigenvector with negative curvature.
 Taking step of  2.50D-01 in eigenvector direction(s).  Step.Grad=  1.53D-05.
 Linear search not attempted -- first point.
 Maximum step size (   0.100) exceeded in Quadratic search.
    -- Step size scaled by   0.400
 Variable       Old X    -DE/DX   Delta X   Delta X   Delta X     New X
                                 (Linear)    (Quad)   (Total)
    R2        2.87670  -0.00061   0.00000   0.00000   0.00000   2.87670
    R3        2.56391  -0.00136   0.00000   0.00000   0.00000   2.56391
    R4        2.83025   0.00030   0.00000  -0.00000  -0.00000   2.83024
    R5        2.83422   0.00030   0.00000   0.00000   0.00000   2.83422
    R6        2.86211   0.00004   0.00000   0.00006   0.00006   2.86217
    R7        2.05705   0.00008   0.00000  -0.00004  -0.00004   2.05701
    R8        2.06926   0.00047   0.00000   0.00003   0.00003   2.06929
    R9        2.05201  -0.00004   0.00000  -0.00000  -0.00000   2.05201
   R10        2.05215   0.00007   0.00000  -0.00000  -0.00000   2.05215
   R11        2.06554   0.00026   0.00000  -0.00000  -0.00000   2.06554
   R12        2.04925   0.00010   0.00000   0.00000   0.00000   2.04925
   R13        2.05170  -0.00003   0.00000   0.00000   0.00000   2.05170
   R14        2.06502   0.00024   0.00000   0.00000   0.00000   2.06502
   R15        2.05818   0.00019   0.00000  -0.00005  -0.00005   2.05814
   R16        2.06178   0.00010   0.00000   0.00008   0.00008   2.06185
   R17        2.06370   0.00033   0.00000   0.00002   0.00002   2.06373
    A3        1.91220  -0.00297   0.00000  -0.00009  -0.00009   1.91211
    A4        1.89292   0.00073   0.00000   0.00135   0.00135   1.89427
    A5        1.93814   0.00069   0.00000  -0.00129  -0.00129   1.93685
    A6        1.96445  -0.00104   0.00000   0.00050   0.00050   1.96495
    A7        1.81141  -0.00006   0.00000   0.00319   0.00319   1.81460
    A8        1.89668   0.00001   0.00000  -0.00312  -0.00312   1.89355
    A9        1.86736   0.00011   0.00000   0.00005   0.00005   1.86740
   A10        1.86721   0.00013   0.00000  -0.00001  -0.00001   1.86720
   A11        1.94423  -0.00009   0.00000  -0.00007  -0.00007   1.94417
   A12        1.87865   0.00015   0.00000   0.00001   0.00001   1.87866
   A13        1.86208   0.00012   0.00000  -0.00006  -0.00006   1.86202
   A14        1.94415  -0.00009   0.00000   0.00008   0.00008   1.94423
   A15        1.89724  -0.00027   0.00000  -0.00213  -0.00213   1.89512
   A16        1.96641  -0.00009   0.00000   0.00465   0.00465   1.97107
   A17        1.90722   0.00007   0.00000  -0.00170  -0.00170   1.90552
    D4       -2.07985   0.00072   0.00000  -0.00438  -0.00438  -2.08423
    D5        2.11754  -0.00079   0.00000  -0.00455  -0.00455   2.11299
    D6       -0.96084   0.00034   0.00000   0.09675   0.09675  -0.86409
    D7        2.07657  -0.00012   0.00000   0.00527   0.00527   2.08184
    D8       -2.18262   0.00009   0.00000   0.00657   0.00657  -2.17605
    D9        3.11467   0.00003   0.00000   0.00052   0.00052   3.11519
   D10       -2.03948   0.00043   0.00000  -0.00000  -0.00000  -2.03948
   D11        2.11952  -0.00019   0.00000  -0.00000  -0.00000   2.11952
   D12       -1.12345  -0.00001   0.00000   0.00066   0.00066  -1.12279
   D13       -2.03711   0.00026   0.00000   0.00005   0.00005  -2.03706
   D14        2.13196   0.00016   0.00000   0.00003   0.00003   2.13199
   D15        0.82442  -0.00011   0.00000   0.02174   0.02174   0.84616
   D16       -2.11541   0.00035   0.00000   0.00093   0.00093  -2.11449
   D17        2.07771  -0.00029   0.00000  -0.00130  -0.00130   2.07642
         Item               Value     Threshold  Converged?
 Maximum Force            0.002975     0.000450     NO 
 RMS     Force            0.000594     0.000300     NO 
 Maximum Displacement     0.096750     0.001800     NO 
 RMS     Displacement     0.014907     0.001200     NO 
 Predicted change in Energy=-9.788940D-05
 GradGradGradGradGradGradGradGradGradGradGradGradGradGradGradGradGradGrad

 ---------------------------------------------------------------------------------------------------
                            Z-MATRIX (ANGSTROMS AND DEGREES)
   CD    Cent   Atom    N1       Length/X        N2       Alpha/Y        N3        Beta/Z          J
 ---------------------------------------------------------------------------------------------------
      1      1  N 
      2      2  C        1   1.522284(     1)
      3      3  O        1   1.356762(     2)      2  109.556(    17)
      4      4  C        1   1.497700(     3)      2  108.534(    18)      3 -119.418(    32)      0
      5      5  C        1   1.499807(     4)      2  110.973(    19)      3  121.065(    33)      0
      6      6  C        2   1.514593(     5)      1  112.583(    20)      3  -49.509(    34)      0
      7      7  H        2   1.088521(     6)      1  103.969(    21)      6  119.281(    35)      0
      8      8  H        2   1.095023(     7)      1  108.493(    22)      6 -124.679(    36)      0
      9      9  H        4   1.085875(     8)      1  106.994(    23)      2  178.487(    37)      0
     10     10  H        4   1.085952(     9)      1  106.983(    24)      9 -116.853(    38)      0
     11     11  H        4   1.093037(    10)      1  111.392(    25)      9  121.439(    39)      0
     12     12  H        5   1.084415(    11)      1  107.639(    26)      2  -64.331(    40)      0
     13     13  H        5   1.085715(    12)      1  106.686(    27)     12 -116.715(    41)      0
     14     14  H        5   1.092761(    13)      1  111.396(    28)     12  122.154(    42)      0
     15     15  H        6   1.089119(    14)      2  108.582(    29)      1   48.481(    43)      0
     16     16  H        6   1.091085(    15)      2  112.934(    30)     15 -121.151(    44)      0
     17     17  H        6   1.092077(    16)      2  109.178(    31)     15  118.970(    45)      0
 ---------------------------------------------------------------------------------------------------
                         Z-Matrix orientation:                         
 ---------------------------------------------------------------------
 Center     Atomic      Atomic             Coordinates (Angstroms)
 Number     Number       Type             X           Y           Z
 ---------------------------------------------------------------------
      1          7           0        0.000000    0.000000    0.000000
      2          6           0        0.000000    0.000000    1.522284
      3          8           0        1.278498    0.000000   -0.454143
      4          6           0       -0.697475    1.236933   -0.476058
      5          6           0       -0.722646   -1.199592   -0.536825
      6          6           0        0.908064   -1.063531    2.103929
      7          1           0        0.365230    0.991182    1.785044
      8          1           0       -1.033141   -0.105174    1.869606
      9          1           0       -0.659328    1.225090   -1.561198
     10          1           0       -0.126170    2.084396   -0.109033
     11          1           0       -1.730717    1.273561   -0.121377
     12          1           0       -0.165795   -2.080300   -0.236451
     13          1           0       -0.697065   -1.120321   -1.619340
     14          1           0       -1.752466   -1.240196   -0.173578
     15          1           0        1.874616   -1.005187    1.605379
     16          1           0        0.508107   -2.072348    1.990838
     17          1           0        1.042526   -0.875873    3.171326
 ---------------------------------------------------------------------
                    Distance matrix (angstroms):
                    1          2          3          4          5
     1  N    0.000000
     2  C    1.522284   0.000000
     3  O    1.356762   2.353895   0.000000
     4  C    1.497700   2.451498   2.331298   0.000000
     5  C    1.499807   2.490215   2.334617   2.437413   0.000000
     6  C    2.526301   1.514593   2.795005   3.811329   3.106656
     7  H    2.074179   1.088521   2.613515   2.510442   3.372543
     8  H    2.138661   1.095023   3.279413   2.723245   2.661779
     9  H    2.091148   3.382812   2.545896   1.085875   2.632951
    10  H    2.091056   2.649872   2.537105   1.085952   3.365022
    11  H    2.152224   2.705358   3.284519   1.093037   2.702830
    12  H    2.100249   2.729155   2.541854   3.368105   1.084415
    13  H    2.088847   3.407465   2.552577   2.619874   1.085715
    14  H    2.153916   2.735904   3.286875   2.709367   1.092761
    15  H    2.664926   2.128730   2.367993   3.996891   3.372329
    16  H    2.918259   2.184569   3.296370   4.300040   2.943728
    17  H    3.451279   2.138541   3.737227   4.560150   4.119589
                    6          7          8          9         10
     6  C    0.000000
     7  H    2.149001   0.000000
     8  H    2.177530   1.778929   0.000000
     9  H    4.596484   3.507388   3.698615   0.000000
    10  H    3.984506   2.241454   3.087366   1.769590   0.000000
    11  H    4.168592   2.847309   2.520225   1.795357   1.797826
    12  H    2.768460   3.715163   3.014779   3.595015   4.166834
    13  H    4.054923   4.144484   3.649139   2.346434   3.588476
    14  H    3.506661   3.646900   2.445466   3.032833   3.701611
    15  H    1.089119   2.509187   3.055306   4.628415   4.060527
    16  H    1.091085   3.073757   2.501983   4.985274   4.700030
    17  H    1.092077   2.422066   2.568433   5.450426   4.570536
                   11         12         13         14         15
    11  H    0.000000
    12  H    3.702784   0.000000
    13  H    3.007158   1.765274   0.000000
    14  H    2.514393   1.796456   1.794010   0.000000
    15  H    4.601392   2.951522   4.126211   4.046683   0.000000
    16  H    4.546305   2.327020   3.923287   3.238420   1.776164
    17  H    4.811740   3.810988   5.102589   4.374139   1.778001
                   16         17
    16  H    0.000000
    17  H    1.763720   0.000000
 Symmetry turned off by external request.
 Stoichiometry    C4H11NO
 Framework group  C1[X(C4H11NO)]
 Deg. of freedom    45
 Full point group                 C1      NOp   1
 Rotational constants (GHZ):           4.9523625           2.7727069           2.6751022
 Standard basis: def2TZVP (5D, 7F)
 The following finite field(s) will be applied:
 An electric field of             -0.0035 -0.0000  0.0066
   252 basis functions,   394 primitive gaussians,   282 cartesian basis functions
    25 alpha electrons       25 beta electrons
       nuclear repulsion energy       274.9783832840 Hartrees.
 NAtoms=   17 NActive=   17 NUniq=   17 SFac= 1.00D+00 NAtFMM=   60 NAOKFM=F Big=F
 Integral buffers will be    131072 words long.
 Raffenetti 2 integral format.
 Two-electron integral symmetry is turned off.
 One-electron integrals computed using PRISM.
   1 Symmetry operations used in ECPInt.
 ECPInt:  NShTT=    6105 NPrTT=   17556 LenC2=    6069 LenP2D=   14636.
 LDataN:  DoStor=T MaxTD1= 6 Len=  172
 NBasis=   252 RedAO= T EigKep=  3.06D-04  NBF=   252
 NBsUse=   252 1.00D-06 EigRej= -1.00D+00 NBFU=   252
 The nuclear repulsion energy is now       275.1811750473 hartrees.
 Initial guess from the checkpoint file:  "checkpoint.chk"
 B after Tr=     0.017884    0.014905   -0.001270
         Rot=    0.999890    0.004765   -0.006201   -0.012574 Ang=   1.70 deg.
 ExpMin= 9.52D-02 ExpMax= 2.70D+04 ExpMxC= 9.22D+02 IAcc=2 IRadAn=         4 AccDes= 0.00D+00
 Harris functional with IExCor=  402 and IRadAn=       4 diagonalized for initial guess.
 HarFok:  IExCor=  402 AccDes= 0.00D+00 IRadAn=         4 IDoV= 1 UseB2=F ITyADJ=14
 ICtDFT=  3500011 ScaDFX=  1.000000  1.000000  1.000000  1.000000
 FoFCou: FMM=F IPFlag=           0 FMFlag=      100000 FMFlg1=           0
         NFxFlg=           0 DoJE=T BraDBF=F KetDBF=T FulRan=T
         wScrn=  0.000000 ICntrl=       500 IOpCl=  0 I1Cent=   200000004 NGrid=           0
         NMat0=    1 NMatS0=      1 NMatT0=    0 NMatD0=    1 NMtDS0=    0 NMtDT0=    0
 Symmetry not used in FoFCou.
 Requested convergence on RMS density matrix=1.00D-08 within 128 cycles.
 Requested convergence on MAX density matrix=1.00D-06.
 Requested convergence on             energy=1.00D-06.
 No special actions if energy rises.
 Integral accuracy reduced to 1.0D-05 until final iterations.
 Initial convergence to 1.0D-05 achieved.  Increase integral accuracy.
 SCF Done:  E(RB3LYP) =  -289.046776115     A.U. after   10 cycles
            NFock= 10  Conv=0.58D-08     -V/T= 2.0051
   1 Symmetry operations used in ECPInt.
 ECPInt:  NShTT=    6105 NPrTT=   17556 LenC2=    6069 LenP2D=   14636.
 LDataN:  DoStor=T MaxTD1= 7 Len=  274
 Calling FoFJK, ICntrl=      2127 FMM=F ISym2X=0 I1Cent= 0 IOpClX= 0 NMat=1 NMatS=1 NMatT=0.
 -------------------------------------------------------------------
 Center     Atomic                   Forces (Hartrees/Bohr)
 Number     Number              X              Y              Z
 -------------------------------------------------------------------
      1        7           0.003417721   -0.001165463   -0.000617304
      2        6          -0.002591688   -0.000442659   -0.000028849
      3        8          -0.001142241    0.001255369    0.000655382
      4        6           0.000372701    0.000088287   -0.000350179
      5        6          -0.000012284   -0.000183274   -0.000138094
      6        6           0.000594394    0.000240266   -0.000162024
      7        1           0.000464018   -0.000163709    0.000739049
      8        1          -0.000427004    0.000792602    0.000193569
      9        1          -0.000053070    0.000036401    0.000009000
     10        1           0.000112312    0.000080413   -0.000277659
     11        1          -0.000251630   -0.000090073    0.000136002
     12        1           0.000269337   -0.000218826    0.000128083
     13        1           0.000136070   -0.000244735    0.000015403
     14        1          -0.000223747    0.000123960   -0.000057544
     15        1          -0.000270550   -0.000366531   -0.000254229
     16        1          -0.000250459    0.000120469   -0.000573093
     17        1          -0.000143879    0.000137503    0.000582487
 -------------------------------------------------------------------
 Cartesian Forces:  Max     0.003417721 RMS     0.000735261
 -----------------------------------------------------------------------------------------------
                       Internal Coordinate Forces (Hartree/Bohr or radian)
  Cent   Atom   N1       Length/X         N2         Alpha/Y        N3         Beta/Z          J
 -----------------------------------------------------------------------------------------------
      1  N 
      2  C        1   0.000497(     1)
      3  O        1  -0.001296(     2)      2  -0.000603(    17)
      4  C        1   0.000165(     3)      2   0.001309(    18)      3   0.000471(    32)     0
      5  C        1   0.000355(     4)      2  -0.000528(    19)      3  -0.001025(    33)     0
      6  C        2  -0.000291(     5)      1  -0.001363(    20)      3  -0.003652(    34)     0
      7  H        2   0.000185(     6)      1   0.001472(    21)      6  -0.000982(    35)     0
      8  H        2   0.000388(     7)      1   0.000154(    22)      6  -0.001632(    36)     0
      9  H        4  -0.000011(     8)      1   0.000118(    23)      2   0.000615(    37)     0
     10  H        4   0.000028(     9)      1   0.000202(    24)      9   0.000575(    38)     0
     11  H        4   0.000279(    10)      1  -0.000227(    25)      9  -0.000014(    39)     0
     12  H        5   0.000352(    11)      1  -0.000230(    26)      2   0.000769(    40)     0
     13  H        5  -0.000030(    12)      1   0.000285(    27)     12   0.000475(    41)     0
     14  H        5   0.000187(    13)      1  -0.000087(    28)     12   0.000344(    42)     0
     15  H        6  -0.000143(    14)      2   0.000094(    29)      1   0.000042(    43)     0
     16  H        6   0.000040(    15)      2  -0.001053(    30)     15   0.000719(    44)     0
     17  H        6   0.000575(    16)      2  -0.000324(    31)     15   0.000298(    45)     0
 -----------------------------------------------------------------------------------------------
 Internal  Forces:  Max     0.003652309 RMS     0.000834123

 GradGradGradGradGradGradGradGradGradGradGradGradGradGradGradGradGradGrad
 Berny optimization.
 Search for a local minimum.
 Step number   2 out of a maximum of   55
 All quantities printed in internal units (Hartrees-Bohrs-Radians)
 Update second derivatives using D2CorN and points    2    1
 ITU=  0  0
     Eigenvalues ---    0.01813   0.03036   0.03343   0.04140   0.06814
     Eigenvalues ---    0.08784   0.09073   0.09324   0.12578   0.12688
     Eigenvalues ---    0.13893   0.14097   0.17042   0.22328   0.22403
     Eigenvalues ---    0.23222   0.24053   0.24306   0.30159   0.30897
     Eigenvalues ---    0.31632   0.31825   0.32296   0.32396   0.32617
     Eigenvalues ---    0.34240   0.34464   0.34496   0.34575   0.34692
     Eigenvalues ---    0.34912   0.34949   0.35043   0.35285   0.35294
     Eigenvalues ---    0.35313   0.35467   0.37916   0.38740   0.40309
     Eigenvalues ---    0.40512   0.42147   0.53460   0.53763   0.61119
 RFO step:  Lambda=-5.95163883D-05 EMin= 1.81330092D-02
 Quartic linear search produced a step of -0.92304.
 Variable       Old X    -DE/DX   Delta X   Delta X   Delta X     New X
                                 (Linear)    (Quad)   (Total)
    R2        2.87670   0.00050   0.00000  -0.00180  -0.00180   2.87490
    R3        2.56391  -0.00130  -0.00000  -0.00248  -0.00248   2.56143
    R4        2.83024   0.00016   0.00000   0.00094   0.00095   2.83119
    R5        2.83422   0.00036  -0.00000   0.00098   0.00098   2.83520
    R6        2.86217  -0.00029  -0.00006   0.00006   0.00001   2.86217
    R7        2.05701   0.00019   0.00004   0.00026   0.00029   2.05730
    R8        2.06929   0.00039  -0.00003   0.00137   0.00134   2.07063
    R9        2.05201  -0.00001   0.00000  -0.00009  -0.00009   2.05192
   R10        2.05215   0.00003   0.00000   0.00019   0.00019   2.05234
   R11        2.06554   0.00028   0.00000   0.00077   0.00077   2.06631
   R12        2.04925   0.00035  -0.00000   0.00030   0.00030   2.04955
   R13        2.05170  -0.00003  -0.00000  -0.00008  -0.00008   2.05162
   R14        2.06502   0.00019  -0.00000   0.00069   0.00069   2.06571
   R15        2.05814  -0.00014   0.00005   0.00051   0.00055   2.05869
   R16        2.06185   0.00004  -0.00007   0.00028   0.00021   2.06206
   R17        2.06373   0.00058  -0.00002   0.00099   0.00097   2.06470
    A3        1.91211  -0.00060   0.00009  -0.01117  -0.01108   1.90103
    A4        1.89427   0.00131  -0.00124   0.00448   0.00324   1.89751
    A5        1.93685  -0.00053   0.00119   0.00372   0.00492   1.94176
    A6        1.96495  -0.00136  -0.00046  -0.00412  -0.00459   1.96036
    A7        1.81460   0.00147  -0.00294  -0.00011  -0.00305   1.81155
    A8        1.89355   0.00015   0.00288   0.00220   0.00508   1.89864
    A9        1.86740   0.00012  -0.00004   0.00005   0.00001   1.86741
   A10        1.86720   0.00020   0.00000   0.00080   0.00081   1.86801
   A11        1.94417  -0.00023   0.00006  -0.00004   0.00002   1.94419
   A12        1.87866  -0.00023  -0.00001   0.00071   0.00070   1.87936
   A13        1.86202   0.00029   0.00005   0.00012   0.00017   1.86219
   A14        1.94423  -0.00009  -0.00007   0.00006  -0.00001   1.94422
   A15        1.89512   0.00009   0.00196  -0.00216  -0.00020   1.89492
   A16        1.97107  -0.00105  -0.00429  -0.00066  -0.00496   1.96611
   A17        1.90552  -0.00032   0.00157   0.00197   0.00354   1.90906
    D4       -2.08423   0.00047   0.00405   0.00372   0.00777  -2.07646
    D5        2.11299  -0.00103   0.00420  -0.00518  -0.00098   2.11201
    D6       -0.86409  -0.00365  -0.08930  -0.00200  -0.09131  -0.95540
    D7        2.08184  -0.00098  -0.00487  -0.00287  -0.00774   2.07411
    D8       -2.17605  -0.00163  -0.00606  -0.00092  -0.00698  -2.18304
    D9        3.11519   0.00061  -0.00048  -0.00476  -0.00524   3.10996
   D10       -2.03948   0.00057   0.00000   0.00150   0.00150  -2.03798
   D11        2.11952  -0.00001   0.00000  -0.00052  -0.00052   2.11900
   D12       -1.12279   0.00077  -0.00061   0.00595   0.00534  -1.11746
   D13       -2.03706   0.00047  -0.00004   0.00164   0.00159  -2.03547
   D14        2.13199   0.00034  -0.00003   0.00194   0.00191   2.13390
   D15        0.84616   0.00004  -0.02007  -0.00808  -0.02815   0.81801
   D16       -2.11449   0.00072  -0.00085   0.00328   0.00243  -2.11206
   D17        2.07642   0.00030   0.00120  -0.00012   0.00108   2.07749
         Item               Value     Threshold  Converged?
 Maximum Force            0.003652     0.000450     NO 
 RMS     Force            0.000834     0.000300     NO 
 Maximum Displacement     0.091309     0.001800     NO 
 RMS     Displacement     0.014635     0.001200     NO 
 Predicted change in Energy=-1.500186D-05
 GradGradGradGradGradGradGradGradGradGradGradGradGradGradGradGradGradGrad

 ---------------------------------------------------------------------------------------------------
                            Z-MATRIX (ANGSTROMS AND DEGREES)
   CD    Cent   Atom    N1       Length/X        N2       Alpha/Y        N3        Beta/Z          J
 ---------------------------------------------------------------------------------------------------
      1      1  N 
      2      2  C        1   1.521329(     1)
      3      3  O        1   1.355451(     2)      2  108.921(    17)
      4      4  C        1   1.498201(     3)      2  108.719(    18)      3 -118.973(    32)      0
      5      5  C        1   1.500323(     4)      2  111.255(    19)      3  121.009(    33)      0
      6      6  C        2   1.514597(     5)      1  112.320(    20)      3  -54.740(    34)      0
      7      7  H        2   1.088675(     6)      1  103.794(    21)      6  118.838(    35)      0
      8      8  H        2   1.095731(     7)      1  108.784(    22)      6 -125.079(    36)      0
      9      9  H        4   1.085827(     8)      1  106.995(    23)      2  178.187(    37)      0
     10     10  H        4   1.086050(     9)      1  107.029(    24)      9 -116.767(    38)      0
     11     11  H        4   1.093442(    10)      1  111.394(    25)      9  121.410(    39)      0
     12     12  H        5   1.084576(    11)      1  107.679(    26)      2  -64.026(    40)      0
     13     13  H        5   1.085672(    12)      1  106.696(    27)     12 -116.624(    41)      0
     14     14  H        5   1.093126(    13)      1  111.395(    28)     12  122.263(    42)      0
     15     15  H        6   1.089412(    14)      2  108.571(    29)      1   46.868(    43)      0
     16     16  H        6   1.091196(    15)      2  112.650(    30)     15 -121.012(    44)      0
     17     17  H        6   1.092592(    16)      2  109.381(    31)     15  119.032(    45)      0
 ---------------------------------------------------------------------------------------------------
                         Z-Matrix orientation:                         
 ---------------------------------------------------------------------
 Center     Atomic      Atomic             Coordinates (Angstroms)
 Number     Number       Type             X           Y           Z
 ---------------------------------------------------------------------
      1          7           0        0.000000    0.000000    0.000000
      2          6           0        0.000000    0.000000    1.521329
      3          8           0        1.282211    0.000000   -0.439524
      4          6           0       -0.687326    1.241372   -0.480818
      5          6           0       -0.720355   -1.198432   -0.543891
      6          6           0        0.808841   -1.144070    2.096553
      7          1           0        0.461864    0.951060    1.780905
      8          1           0       -1.037368   -0.003275    1.874153
      9          1           0       -0.642847    1.228844   -1.565661
     10          1           0       -0.112689    2.086100   -0.112399
     11          1           0       -1.722947    1.284226   -0.132582
     12          1           0       -0.166815   -2.080735   -0.241501
     13          1           0       -0.686010   -1.118421   -1.626066
     14          1           0       -1.753574   -1.237614   -0.189137
     15          1           0        1.764295   -1.190026    1.575196
     16          1           0        0.302572   -2.106040    2.001611
     17          1           0        0.988328   -0.962999    3.158982
 ---------------------------------------------------------------------
                    Distance matrix (angstroms):
                    1          2          3          4          5
     1  N    0.000000
     2  C    1.521329   0.000000
     3  O    1.355451   2.342864   0.000000
     4  C    1.498201   2.453979   2.328473   0.000000
     5  C    1.500323   2.494050   2.336109   2.440843   0.000000
     6  C    2.521638   1.514597   2.822173   3.817288   3.051777
     7  H    2.071100   1.088675   2.551036   2.553489   3.379739
     8  H    2.142100   1.095731   3.276211   2.686552   2.715848
     9  H    2.091555   3.384201   2.546388   1.085827   2.634709
    10  H    2.092163   2.652090   2.530725   1.086050   3.368026
    11  H    2.152989   2.711680   3.282442   1.093442   2.708867
    12  H    2.101335   2.732189   2.543294   3.371142   1.084576
    13  H    2.089393   3.409923   2.555903   2.623016   1.085672
    14  H    2.154642   2.744522   3.287913   2.714283   1.093126
    15  H    2.647667   2.128802   2.389071   4.018623   3.265591
    16  H    2.921199   2.181198   3.369605   4.283400   2.889587
    17  H    3.447220   2.141510   3.736707   4.573315   4.084886
                    6          7          8          9         10
     6  C    0.000000
     7  H    2.146998   0.000000
     8  H    2.181596   1.779649   0.000000
     9  H    4.598906   3.535117   3.675062   0.000000
    10  H    4.020285   2.281014   3.027691   1.768594   0.000000
    11  H    4.156395   2.923325   2.480860   1.795382   1.798983
    12  H    2.701063   3.698263   3.090258   3.596292   4.169186
    13  H    4.011625   4.148230   3.690329   2.348439   3.590103
    14  H    3.434982   3.685041   2.508726   3.035119   3.707488
    15  H    1.089412   2.514536   3.057297   4.637914   4.135704
    16  H    1.091196   3.069194   2.496659   4.974002   4.713335
    17  H    1.092592   2.416586   2.583660   5.457762   4.605560
                   11         12         13         14         15
    11  H    0.000000
    12  H    3.708959   0.000000
    13  H    3.013046   1.764265   0.000000
    14  H    2.522660   1.797609   1.794064   0.000000
    15  H    4.604268   2.796951   4.032021   3.935801   0.000000
    16  H    4.489033   2.291837   3.887509   3.127503   1.776948
    17  H    4.820314   3.761246   5.071908   4.336281   1.778214
                   16         17
    16  H    0.000000
    17  H    1.765308   0.000000
 Symmetry turned off by external request.
 Stoichiometry    C4H11NO
 Framework group  C1[X(C4H11NO)]
 Deg. of freedom    45
 Full point group                 C1      NOp   1
 Rotational constants (GHZ):           4.9577811           2.7827574           2.6769748
 Standard basis: def2TZVP (5D, 7F)
 The following finite field(s) will be applied:
 An electric field of             -0.0035 -0.0000  0.0066
   252 basis functions,   394 primitive gaussians,   282 cartesian basis functions
    25 alpha electrons       25 beta electrons
       nuclear repulsion energy       275.1169594342 Hartrees.
 NAtoms=   17 NActive=   17 NUniq=   17 SFac= 1.00D+00 NAtFMM=   60 NAOKFM=F Big=F
 Integral buffers will be    131072 words long.
 Raffenetti 2 integral format.
 Two-electron integral symmetry is turned off.
 One-electron integrals computed using PRISM.
   1 Symmetry operations used in ECPInt.
 ECPInt:  NShTT=    6105 NPrTT=   17556 LenC2=    6069 LenP2D=   14640.
 LDataN:  DoStor=T MaxTD1= 6 Len=  172
 NBasis=   252 RedAO= T EigKep=  3.07D-04  NBF=   252
 NBsUse=   252 1.00D-06 EigRej= -1.00D+00 NBFU=   252
 The nuclear repulsion energy is now       275.3235592483 hartrees.
 Lowest energy guess from the checkpoint file:  "checkpoint.chk"
 B after Tr=     0.009398    0.000019   -0.003004
         Rot=    0.999999   -0.000206    0.001224   -0.001103 Ang=  -0.19 deg.
 B after Tr=    -0.008866   -0.014539   -0.002171
         Rot=    0.999894   -0.004946    0.007387    0.011490 Ang=  -1.66 deg.
 Requested convergence on RMS density matrix=1.00D-08 within 128 cycles.
 Requested convergence on MAX density matrix=1.00D-06.
 Requested convergence on             energy=1.00D-06.
 No special actions if energy rises.
 Integral accuracy reduced to 1.0D-05 until final iterations.
 Initial convergence to 1.0D-05 achieved.  Increase integral accuracy.
 SCF Done:  E(RB3LYP) =  -289.046966260     A.U. after    9 cycles
            NFock=  9  Conv=0.95D-08     -V/T= 2.0051
   1 Symmetry operations used in ECPInt.
 ECPInt:  NShTT=    6105 NPrTT=   17556 LenC2=    6069 LenP2D=   14640.
 LDataN:  DoStor=T MaxTD1= 7 Len=  274
 Calling FoFJK, ICntrl=      2127 FMM=F ISym2X=0 I1Cent= 0 IOpClX= 0 NMat=1 NMatS=1 NMatT=0.
 -------------------------------------------------------------------
 Center     Atomic                   Forces (Hartrees/Bohr)
 Number     Number              X              Y              Z
 -------------------------------------------------------------------
      1        7           0.003238057    0.000065035    0.000296187
      2        6          -0.002933131    0.000075298   -0.000113462
      3        8           0.000259275    0.000106827   -0.000510626
      4        6          -0.000123522   -0.000175860    0.000016554
      5        6          -0.000206012    0.000130642   -0.000015942
      6        6           0.000004808   -0.000244784    0.000343723
      7        1          -0.000085400   -0.000020387   -0.000086828
      8        1          -0.000150752   -0.000038422    0.000163542
      9        1           0.000031077   -0.000020368   -0.000029718
     10        1           0.000063846   -0.000095663    0.000009885
     11        1          -0.000020822   -0.000054905   -0.000001498
     12        1           0.000019338    0.000090788   -0.000021161
     13        1           0.000054243    0.000033551   -0.000022227
     14        1          -0.000010269    0.000036029   -0.000013201
     15        1          -0.000056141    0.000118988   -0.000029538
     16        1          -0.000040220   -0.000009969    0.000047310
     17        1          -0.000044376    0.000003201   -0.000032999
 -------------------------------------------------------------------
 Cartesian Forces:  Max     0.003238057 RMS     0.000625411
 -----------------------------------------------------------------------------------------------
                       Internal Coordinate Forces (Hartree/Bohr or radian)
  Cent   Atom   N1       Length/X         N2         Alpha/Y        N3         Beta/Z          J
 -----------------------------------------------------------------------------------------------
      1  N 
      2  C        1   0.000292(     1)
      3  O        1   0.000411(     2)      2   0.001022(    17)
      4  C        1  -0.000263(     3)      2   0.000220(    18)      3  -0.000469(    32)     0
      5  C        1  -0.000138(     4)      2   0.000450(    19)      3   0.000669(    33)     0
      6  C        2   0.000152(     5)      1   0.000778(    20)      3  -0.000124(    34)     0
      7  H        2  -0.000075(     6)      1  -0.000146(    21)      6   0.000136(    35)     0
      8  H        2   0.000195(     7)      1   0.000220(    22)      6   0.000074(    36)     0
      9  H        4   0.000031(     8)      1  -0.000066(    23)      2  -0.000041(    37)     0
     10  H        4  -0.000037(     9)      1  -0.000216(    24)      9   0.000056(    38)     0
     11  H        4   0.000017(    10)      1  -0.000093(    25)      9  -0.000065(    39)     0
     12  H        5  -0.000070(    11)      1  -0.000114(    26)      2   0.000057(    40)     0
     13  H        5   0.000026(    12)      1  -0.000112(    27)     12   0.000058(    41)     0
     14  H        5   0.000004(    13)      1  -0.000046(    28)     12   0.000063(    42)     0
     15  H        6  -0.000040(    14)      2  -0.000257(    29)      1   0.000007(    43)     0
     16  H        6   0.000023(    15)      2  -0.000011(    30)     15  -0.000111(    44)     0
     17  H        6  -0.000039(    16)      2  -0.000056(    31)     15   0.000056(    45)     0
 -----------------------------------------------------------------------------------------------
 Internal  Forces:  Max     0.001021912 RMS     0.000270387

 GradGradGradGradGradGradGradGradGradGradGradGradGradGradGradGradGradGrad
 Berny optimization.
 Search for a local minimum.
 Step number   3 out of a maximum of   55
 All quantities printed in internal units (Hartrees-Bohrs-Radians)
 Update second derivatives using D2CorN and points    2    1    3
 DE= -2.23D-05 DEPred=-1.50D-05 R= 1.49D+00
 TightC=F SS=  1.41D+00  RLast= 2.01D-02 DXNew= 1.6818D-01 6.0204D-02
 Trust test= 1.49D+00 RLast= 2.01D-02 DXMaxT set to 1.00D-01
 ITU=  1  0  0
     Eigenvalues ---    0.01557   0.02875   0.03217   0.04286   0.06844
     Eigenvalues ---    0.08821   0.09021   0.09403   0.12616   0.12720
     Eigenvalues ---    0.13892   0.14100   0.17326   0.22336   0.22617
     Eigenvalues ---    0.23427   0.24094   0.26747   0.30425   0.30916
     Eigenvalues ---    0.31633   0.31820   0.32289   0.32428   0.32739
     Eigenvalues ---    0.34176   0.34460   0.34494   0.34578   0.34691
     Eigenvalues ---    0.34914   0.34992   0.35275   0.35291   0.35310
     Eigenvalues ---    0.35379   0.35496   0.37928   0.38795   0.40277
     Eigenvalues ---    0.40513   0.42409   0.53390   0.54795   0.61059
 RFO step:  Lambda=-3.54057336D-06 EMin= 1.55713935D-02
 Quartic linear search produced a step of -0.22773.
 Variable       Old X    -DE/DX   Delta X   Delta X   Delta X     New X
                                 (Linear)    (Quad)   (Total)
    R2        2.87490   0.00029   0.00041   0.00026   0.00067   2.87557
    R3        2.56143   0.00041   0.00056   0.00005   0.00061   2.56204
    R4        2.83119  -0.00026  -0.00021  -0.00045  -0.00066   2.83053
    R5        2.83520  -0.00014  -0.00022  -0.00013  -0.00035   2.83485
    R6        2.86217   0.00015  -0.00002   0.00047   0.00046   2.86263
    R7        2.05730  -0.00007  -0.00006  -0.00013  -0.00018   2.05712
    R8        2.07063   0.00020  -0.00031   0.00083   0.00052   2.07115
    R9        2.05192   0.00003   0.00002   0.00005   0.00007   2.05199
   R10        2.05234  -0.00004  -0.00004  -0.00004  -0.00009   2.05225
   R11        2.06631   0.00002  -0.00017   0.00023   0.00005   2.06636
   R12        2.04955  -0.00007  -0.00007  -0.00012  -0.00019   2.04936
   R13        2.05162   0.00003   0.00002   0.00004   0.00006   2.05169
   R14        2.06571   0.00000  -0.00016   0.00018   0.00003   2.06574
   R15        2.05869  -0.00004  -0.00011   0.00006  -0.00005   2.05864
   R16        2.06206   0.00002  -0.00007   0.00012   0.00006   2.06212
   R17        2.06470  -0.00004  -0.00023   0.00013  -0.00010   2.06460
    A3        1.90103   0.00102   0.00254  -0.00009   0.00245   1.90348
    A4        1.89751   0.00022  -0.00104   0.00039  -0.00065   1.89686
    A5        1.94176   0.00045  -0.00082   0.00163   0.00081   1.94257
    A6        1.96036   0.00078   0.00093   0.00142   0.00235   1.96271
    A7        1.81155  -0.00015  -0.00003  -0.00161  -0.00164   1.80991
    A8        1.89864   0.00022  -0.00045   0.00106   0.00062   1.89925
    A9        1.86741  -0.00007  -0.00001  -0.00019  -0.00020   1.86721
   A10        1.86801  -0.00022  -0.00018  -0.00059  -0.00078   1.86723
   A11        1.94419  -0.00009   0.00001  -0.00005  -0.00004   1.94415
   A12        1.87936  -0.00011  -0.00016  -0.00009  -0.00025   1.87910
   A13        1.86219  -0.00011  -0.00003  -0.00045  -0.00048   1.86171
   A14        1.94422  -0.00005  -0.00002   0.00007   0.00005   1.94427
   A15        1.89492  -0.00026   0.00053  -0.00153  -0.00100   1.89392
   A16        1.96611  -0.00001   0.00007   0.00030   0.00037   1.96647
   A17        1.90906  -0.00006  -0.00042   0.00019  -0.00023   1.90883
    D4       -2.07646  -0.00047  -0.00077   0.00058  -0.00019  -2.07665
    D5        2.11201   0.00067   0.00126   0.00123   0.00249   2.11450
    D6       -0.95540  -0.00012  -0.00124  -0.00164  -0.00288  -0.95827
    D7        2.07411   0.00014   0.00056  -0.00014   0.00042   2.07453
    D8       -2.18304   0.00007   0.00009  -0.00073  -0.00064  -2.18367
    D9        3.10996  -0.00004   0.00107  -0.00240  -0.00132   3.10864
   D10       -2.03798   0.00006  -0.00034   0.00078   0.00043  -2.03754
   D11        2.11900  -0.00007   0.00012   0.00007   0.00019   2.11919
   D12       -1.11746   0.00006  -0.00137   0.00112  -0.00025  -1.11771
   D13       -2.03547   0.00006  -0.00037   0.00079   0.00041  -2.03505
   D14        2.13390   0.00006  -0.00044   0.00093   0.00049   2.13439
   D15        0.81801   0.00001   0.00146  -0.00511  -0.00365   0.81435
   D16       -2.11206  -0.00011  -0.00076   0.00037  -0.00040  -2.11245
   D17        2.07749   0.00006   0.00005  -0.00051  -0.00046   2.07704
         Item               Value     Threshold  Converged?
 Maximum Force            0.001022     0.000450     NO 
 RMS     Force            0.000270     0.000300     YES
 Maximum Displacement     0.003653     0.001800     NO 
 RMS     Displacement     0.001065     0.001200     YES
 Predicted change in Energy=-4.665592D-06
 GradGradGradGradGradGradGradGradGradGradGradGradGradGradGradGradGradGrad

 ---------------------------------------------------------------------------------------------------
                            Z-MATRIX (ANGSTROMS AND DEGREES)
   CD    Cent   Atom    N1       Length/X        N2       Alpha/Y        N3        Beta/Z          J
 ---------------------------------------------------------------------------------------------------
      1      1  N 
      2      2  C        1   1.521684(     1)
      3      3  O        1   1.355773(     2)      2  109.061(    17)
      4      4  C        1   1.497851(     3)      2  108.682(    18)      3 -118.984(    32)      0
      5      5  C        1   1.500137(     4)      2  111.301(    19)      3  121.152(    33)      0
      6      6  C        2   1.514839(     5)      1  112.455(    20)      3  -54.905(    34)      0
      7      7  H        2   1.088578(     6)      1  103.700(    21)      6  118.862(    35)      0
      8      8  H        2   1.096006(     7)      1  108.819(    22)      6 -125.115(    36)      0
      9      9  H        4   1.085866(     8)      1  106.983(    23)      2  178.112(    37)      0
     10     10  H        4   1.086005(     9)      1  106.985(    24)      9 -116.743(    38)      0
     11     11  H        4   1.093471(    10)      1  111.392(    25)      9  121.421(    39)      0
     12     12  H        5   1.084476(    11)      1  107.665(    26)      2  -64.040(    40)      0
     13     13  H        5   1.085706(    12)      1  106.668(    27)     12 -116.600(    41)      0
     14     14  H        5   1.093141(    13)      1  111.398(    28)     12  122.292(    42)      0
     15     15  H        6   1.089383(    14)      2  108.513(    29)      1   46.659(    43)      0
     16     16  H        6   1.091227(    15)      2  112.671(    30)     15 -121.035(    44)      0
     17     17  H        6   1.092539(    16)      2  109.368(    31)     15  119.005(    45)      0
 ---------------------------------------------------------------------------------------------------
                         Z-Matrix orientation:                         
 ---------------------------------------------------------------------
 Center     Atomic      Atomic             Coordinates (Angstroms)
 Number     Number       Type             X           Y           Z
 ---------------------------------------------------------------------
      1          7           0        0.000000    0.000000    0.000000
      2          6           0        0.000000    0.000000    1.521684
      3          8           0        1.281434    0.000000   -0.442772
      4          6           0       -0.687555    1.241222   -0.479784
      5          6           0       -0.723015   -1.196114   -0.544951
      6          6           0        0.804897   -1.145467    2.100289
      7          1           0        0.464341    0.950221    1.779501
      8          1           0       -1.037414    0.000369    1.875237
      9          1           0       -0.642112    1.229805   -1.564638
     10          1           0       -0.112959    2.085299   -0.109945
     11          1           0       -1.723439    1.283090   -0.132120
     12          1           0       -0.171520   -2.079744   -0.243056
     13          1           0       -0.687605   -1.115081   -1.627049
     14          1           0       -1.756569   -1.232888   -0.190872
     15          1           0        1.759091   -1.196663    1.577175
     16          1           0        0.294516   -2.105775    2.010308
     17          1           0        0.986922   -0.960630    3.161581
 ---------------------------------------------------------------------
                    Distance matrix (angstroms):
                    1          2          3          4          5
     1  N    0.000000
     2  C    1.521684   0.000000
     3  O    1.355773   2.345455   0.000000
     4  C    1.497851   2.453413   2.327858   0.000000
     5  C    1.500137   2.494878   2.336439   2.438466   0.000000
     6  C    2.524117   1.514839   2.829547   3.818439   3.055220
     7  H    2.070062   1.088578   2.551286   2.552629   3.379297
     8  H    2.143068   1.096006   3.278753   2.684817   2.718037
     9  H    2.091129   3.383801   2.543823   1.085866   2.632753
    10  H    2.091248   2.650178   2.530529   1.086005   3.365868
    11  H    2.152677   2.711389   3.282086   1.093471   2.705130
    12  H    2.100912   2.732958   2.544857   3.369147   1.084476
    13  H    2.088897   3.410384   2.554023   2.620760   1.085706
    14  H    2.154525   2.745614   3.288302   2.710624   1.093141
    15  H    2.648374   2.128258   2.395902   4.020005   3.265619
    16  H    2.926152   2.181692   3.380221   4.285722   2.896929
    17  H    3.448539   2.141516   3.741779   4.572917   4.088730
                    6          7          8          9         10
     6  C    0.000000
     7  H    2.147276   0.000000
     8  H    2.181215   1.779509   0.000000
     9  H    4.600808   3.533507   3.674305   0.000000
    10  H    4.020627   2.278526   3.023656   1.768617   0.000000
    11  H    4.156202   2.924291   2.479009   1.795610   1.799355
    12  H    2.705092   3.698073   3.092540   3.594600   4.167581
    13  H    4.015162   4.146931   3.692235   2.346157   3.588071
    14  H    3.437756   3.685210   2.511356   3.032177   3.703831
    15  H    1.089383   2.515239   3.056496   4.639452   4.137900
    16  H    1.091227   3.069402   2.495621   4.978313   4.714510
    17  H    1.092539   2.415490   2.583823   5.457922   4.603293
                   11         12         13         14         15
    11  H    0.000000
    12  H    3.705322   0.000000
    13  H    3.009815   1.764187   0.000000
    14  H    2.516881   1.797851   1.794203   0.000000
    15  H    4.604224   2.796485   4.032372   3.935374   0.000000
    16  H    4.488490   2.301198   3.895690   3.132742   1.777377
    17  H    4.819628   3.766425   5.075320   4.340486   1.778285
                   16         17
    16  H    0.000000
    17  H    1.765280   0.000000
 Symmetry turned off by external request.
 Stoichiometry    C4H11NO
 Framework group  C1[X(C4H11NO)]
 Deg. of freedom    45
 Full point group                 C1      NOp   1
 Rotational constants (GHZ):           4.9570122           2.7787447           2.6748091
 Standard basis: def2TZVP (5D, 7F)
 The following finite field(s) will be applied:
 An electric field of             -0.0035 -0.0000  0.0066
   252 basis functions,   394 primitive gaussians,   282 cartesian basis functions
    25 alpha electrons       25 beta electrons
       nuclear repulsion energy       275.0558195810 Hartrees.
 NAtoms=   17 NActive=   17 NUniq=   17 SFac= 1.00D+00 NAtFMM=   60 NAOKFM=F Big=F
 Integral buffers will be    131072 words long.
 Raffenetti 2 integral format.
 Two-electron integral symmetry is turned off.
 One-electron integrals computed using PRISM.
   1 Symmetry operations used in ECPInt.
 ECPInt:  NShTT=    6105 NPrTT=   17556 LenC2=    6069 LenP2D=   14637.
 LDataN:  DoStor=T MaxTD1= 6 Len=  172
 NBasis=   252 RedAO= T EigKep=  3.07D-04  NBF=   252
 NBsUse=   252 1.00D-06 EigRej= -1.00D+00 NBFU=   252
 The nuclear repulsion energy is now       275.2630116930 hartrees.
 Initial guess from the checkpoint file:  "checkpoint.chk"
 B after Tr=    -0.002074    0.000597    0.000387
         Rot=    1.000000    0.000038    0.000006    0.000701 Ang=   0.08 deg.
 Requested convergence on RMS density matrix=1.00D-08 within 128 cycles.
 Requested convergence on MAX density matrix=1.00D-06.
 Requested convergence on             energy=1.00D-06.
 No special actions if energy rises.
 SCF Done:  E(RB3LYP) =  -289.046969178     A.U. after    8 cycles
            NFock=  8  Conv=0.75D-08     -V/T= 2.0051
   1 Symmetry operations used in ECPInt.
 ECPInt:  NShTT=    6105 NPrTT=   17556 LenC2=    6069 LenP2D=   14637.
 LDataN:  DoStor=T MaxTD1= 7 Len=  274
 Calling FoFJK, ICntrl=      2127 FMM=F ISym2X=0 I1Cent= 0 IOpClX= 0 NMat=1 NMatS=1 NMatT=0.
 -------------------------------------------------------------------
 Center     Atomic                   Forces (Hartrees/Bohr)
 Number     Number              X              Y              Z
 -------------------------------------------------------------------
      1        7           0.002957288   -0.000007545   -0.000017228
      2        6          -0.002978864    0.000139248   -0.000046339
      3        8           0.000044536   -0.000084009    0.000076919
      4        6          -0.000040324    0.000066445    0.000067084
      5        6          -0.000027411   -0.000038979    0.000054638
      6        6          -0.000037559   -0.000085687   -0.000060755
      7        1          -0.000019638   -0.000005800    0.000032339
      8        1          -0.000023607   -0.000009251   -0.000044312
      9        1           0.000012835   -0.000007790    0.000012685
     10        1          -0.000011925    0.000037274   -0.000027334
     11        1           0.000016978    0.000005521   -0.000002483
     12        1           0.000018640   -0.000053858    0.000011737
     13        1           0.000029197   -0.000000382    0.000005963
     14        1           0.000032376    0.000002577    0.000010436
     15        1           0.000060458    0.000024718    0.000000353
     16        1          -0.000028598    0.000005978   -0.000029787
     17        1          -0.000004381    0.000011543   -0.000043916
 -------------------------------------------------------------------
 Cartesian Forces:  Max     0.002978864 RMS     0.000589198
 -----------------------------------------------------------------------------------------------
                       Internal Coordinate Forces (Hartree/Bohr or radian)
  Cent   Atom   N1       Length/X         N2         Alpha/Y        N3         Beta/Z          J
 -----------------------------------------------------------------------------------------------
      1  N 
      2  C        1  -0.000192(     1)
      3  O        1   0.000017(     2)      2  -0.000224(    17)
      4  C        1   0.000078(     3)      2  -0.000146(    18)      3   0.000032(    32)     0
      5  C        1   0.000017(     4)      2  -0.000253(    19)      3  -0.000211(    33)     0
      6  C        2  -0.000024(     5)      1  -0.000376(    20)      3  -0.000041(    34)     0
      7  H        2  -0.000006(     6)      1   0.000071(    21)      6   0.000030(    35)     0
      8  H        2   0.000008(     7)      1  -0.000103(    22)      6   0.000018(    36)     0
      9  H        4  -0.000012(     8)      1  -0.000028(    23)      2   0.000026(    37)     0
     10  H        4   0.000013(     9)      1   0.000088(    24)      9   0.000031(    38)     0
     11  H        4  -0.000017(    10)      1   0.000008(    25)      9   0.000011(    39)     0
     12  H        5   0.000057(    11)      1   0.000027(    26)      2   0.000023(    40)     0
     13  H        5  -0.000005(    12)      1  -0.000031(    27)     12   0.000049(    41)     0
     14  H        5  -0.000027(    13)      1  -0.000025(    28)     12  -0.000031(    42)     0
     15  H        6   0.000052(    14)      2  -0.000006(    29)      1   0.000080(    43)     0
     16  H        6   0.000011(    15)      2  -0.000079(    30)     15   0.000025(    44)     0
     17  H        6  -0.000041(    16)      2  -0.000031(    31)     15  -0.000023(    45)     0
 -----------------------------------------------------------------------------------------------
 Internal  Forces:  Max     0.000376038 RMS     0.000097242

 GradGradGradGradGradGradGradGradGradGradGradGradGradGradGradGradGradGrad
 Berny optimization.
 Search for a local minimum.
 Step number   4 out of a maximum of   55
 All quantities printed in internal units (Hartrees-Bohrs-Radians)
 Update second derivatives using D2CorN and points    2    1    3    4
 DE= -2.92D-06 DEPred=-4.67D-06 R= 6.26D-01
 TightC=F SS=  1.41D+00  RLast= 7.14D-03 DXNew= 1.6818D-01 2.1424D-02
 Trust test= 6.26D-01 RLast= 7.14D-03 DXMaxT set to 1.00D-01
 ITU=  1  1  0  0
     Eigenvalues ---    0.02347   0.02476   0.02997   0.04194   0.06892
     Eigenvalues ---    0.08799   0.08863   0.09479   0.12596   0.12995
     Eigenvalues ---    0.13899   0.14130   0.17847   0.22341   0.22612
     Eigenvalues ---    0.23383   0.24237   0.26889   0.30579   0.31013
     Eigenvalues ---    0.31657   0.31823   0.32255   0.32430   0.32910
     Eigenvalues ---    0.34148   0.34464   0.34500   0.34591   0.34689
     Eigenvalues ---    0.34912   0.34991   0.35282   0.35292   0.35312
     Eigenvalues ---    0.35451   0.36189   0.37935   0.38870   0.40300
     Eigenvalues ---    0.40521   0.43248   0.53589   0.56985   0.61427
 RFO step:  Lambda=-5.77094213D-07 EMin= 2.34711496D-02
 Quartic linear search produced a step of -0.24114.
 Variable       Old X    -DE/DX   Delta X   Delta X   Delta X     New X
                                 (Linear)    (Quad)   (Total)
    R2        2.87557  -0.00019  -0.00016  -0.00027  -0.00043   2.87514
    R3        2.56204   0.00002  -0.00015   0.00018   0.00003   2.56207
    R4        2.83053   0.00008   0.00016  -0.00001   0.00015   2.83068
    R5        2.83485   0.00002   0.00008  -0.00006   0.00003   2.83487
    R6        2.86263  -0.00002  -0.00011   0.00007  -0.00004   2.86259
    R7        2.05712  -0.00001   0.00004  -0.00006  -0.00002   2.05710
    R8        2.07115   0.00001  -0.00013   0.00015   0.00002   2.07117
    R9        2.05199  -0.00001  -0.00002  -0.00000  -0.00002   2.05197
   R10        2.05225   0.00001   0.00002   0.00000   0.00003   2.05228
   R11        2.06636  -0.00002  -0.00001  -0.00002  -0.00004   2.06633
   R12        2.04936   0.00006   0.00005   0.00006   0.00010   2.04947
   R13        2.05169  -0.00001  -0.00002   0.00001  -0.00001   2.05168
   R14        2.06574  -0.00003  -0.00001  -0.00005  -0.00006   2.06568
   R15        2.05864   0.00005   0.00001   0.00009   0.00010   2.05874
   R16        2.06212   0.00001  -0.00001   0.00004   0.00003   2.06215
   R17        2.06460  -0.00004   0.00002  -0.00011  -0.00009   2.06451
    A3        1.90348  -0.00022  -0.00059   0.00024  -0.00035   1.90313
    A4        1.89686  -0.00015   0.00016  -0.00014   0.00002   1.89687
    A5        1.94257  -0.00025  -0.00019  -0.00026  -0.00045   1.94211
    A6        1.96271  -0.00038  -0.00057  -0.00032  -0.00088   1.96183
    A7        1.80991   0.00007   0.00040   0.00045   0.00084   1.81075
    A8        1.89925  -0.00010  -0.00015  -0.00042  -0.00057   1.89868
    A9        1.86721  -0.00003   0.00005  -0.00021  -0.00016   1.86705
   A10        1.86723   0.00009   0.00019   0.00008   0.00027   1.86750
   A11        1.94415   0.00001   0.00001   0.00002   0.00003   1.94418
   A12        1.87910   0.00003   0.00006   0.00001   0.00007   1.87918
   A13        1.86171  -0.00003   0.00012  -0.00024  -0.00012   1.86159
   A14        1.94427  -0.00003  -0.00001  -0.00002  -0.00003   1.94424
   A15        1.89392  -0.00001   0.00024  -0.00022   0.00002   1.89394
   A16        1.96647  -0.00008  -0.00009  -0.00017  -0.00026   1.96621
   A17        1.90883  -0.00003   0.00006  -0.00004   0.00001   1.90884
    D4       -2.07665   0.00003   0.00005  -0.00032  -0.00027  -2.07693
    D5        2.11450  -0.00021  -0.00060  -0.00003  -0.00063   2.11387
    D6       -0.95827  -0.00004   0.00069  -0.00173  -0.00104  -0.95931
    D7        2.07453   0.00003  -0.00010   0.00083   0.00073   2.07526
    D8       -2.18367   0.00002   0.00015   0.00094   0.00109  -2.18258
    D9        3.10864   0.00003   0.00032  -0.00002   0.00030   3.10894
   D10       -2.03754   0.00003  -0.00010   0.00022   0.00011  -2.03743
   D11        2.11919   0.00001  -0.00005  -0.00000  -0.00005   2.11914
   D12       -1.11771   0.00002   0.00006   0.00024   0.00030  -1.11741
   D13       -2.03505   0.00005  -0.00010   0.00020   0.00010  -2.03495
   D14        2.13439  -0.00003  -0.00012   0.00013   0.00001   2.13440
   D15        0.81435   0.00008   0.00088   0.00211   0.00299   0.81735
   D16       -2.11245   0.00003   0.00010  -0.00011  -0.00002  -2.11247
   D17        2.07704  -0.00002   0.00011  -0.00012  -0.00001   2.07702
         Item               Value     Threshold  Converged?
 Maximum Force            0.000376     0.000450     YES
 RMS     Force            0.000097     0.000300     YES
 Maximum Displacement     0.002992     0.001800     NO 
 RMS     Displacement     0.000577     0.001200     YES
 Predicted change in Energy=-6.657619D-07
 GradGradGradGradGradGradGradGradGradGradGradGradGradGradGradGradGradGrad

 ---------------------------------------------------------------------------------------------------
                            Z-MATRIX (ANGSTROMS AND DEGREES)
   CD    Cent   Atom    N1       Length/X        N2       Alpha/Y        N3        Beta/Z          J
 ---------------------------------------------------------------------------------------------------
      1      1  N 
      2      2  C        1   1.521456(     1)
      3      3  O        1   1.355791(     2)      2  109.041(    17)
      4      4  C        1   1.497932(     3)      2  108.683(    18)      3 -118.999(    32)      0
      5      5  C        1   1.500150(     4)      2  111.275(    19)      3  121.116(    33)      0
      6      6  C        2   1.514816(     5)      1  112.404(    20)      3  -54.964(    34)      0
      7      7  H        2   1.088569(     6)      1  103.748(    21)      6  118.904(    35)      0
      8      8  H        2   1.096017(     7)      1  108.787(    22)      6 -125.053(    36)      0
      9      9  H        4   1.085854(     8)      1  106.974(    23)      2  178.129(    37)      0
     10     10  H        4   1.086018(     9)      1  107.000(    24)      9 -116.736(    38)      0
     11     11  H        4   1.093452(    10)      1  111.393(    25)      9  121.418(    39)      0
     12     12  H        5   1.084531(    11)      1  107.669(    26)      2  -64.023(    40)      0
     13     13  H        5   1.085701(    12)      1  106.661(    27)     12 -116.594(    41)      0
     14     14  H        5   1.093112(    13)      1  111.396(    28)     12  122.292(    42)      0
     15     15  H        6   1.089436(    14)      2  108.514(    29)      1   46.831(    43)      0
     16     16  H        6   1.091241(    15)      2  112.656(    30)     15 -121.036(    44)      0
     17     17  H        6   1.092491(    16)      2  109.369(    31)     15  119.005(    45)      0
 ---------------------------------------------------------------------------------------------------
                         Z-Matrix orientation:                         
 ---------------------------------------------------------------------
 Center     Atomic      Atomic             Coordinates (Angstroms)
 Number     Number       Type             X           Y           Z
 ---------------------------------------------------------------------
      1          7           0        0.000000    0.000000    0.000000
      2          6           0        0.000000    0.000000    1.521456
      3          8           0        1.281607    0.000000   -0.442324
[...]
 \\int_zmat_initalOpt\\0,1\N\C,1,R2\O,1,R3,2,A3\C,1,R4,2,A4,3,D4,0\C,1,
 R5,2,A5,3,D5,0\C,2,R6,1,A6,3,D6,0\H,2,R7,1,A7,6,D7,0\H,2,R8,1,A8,6,D8,
 0\H,4,R9,1,A9,2,D9,0\H,4,R10,1,A10,9,D10,0\H,4,R11,1,A11,9,D11,0\H,5,R
 12,1,A12,2,D12,0\H,5,R13,1,A13,12,D13,0\H,5,R14,1,A14,12,D14,0\H,6,R15
 ,2,A15,1,D15,0\H,6,R16,2,A16,15,D16,0\H,6,R17,2,A17,15,D17,0\\R2=1.521
 45636\R3=1.35579059\R4=1.49793152\R5=1.50015048\R6=1.51481569\R7=1.088
 56923\R8=1.09601653\R9=1.0858536\R10=1.08601835\R11=1.09345213\R12=1.0
 845313\R13=1.08570124\R14=1.09311154\R15=1.08943573\R16=1.09124106\R17
 =1.0924915\A3=109.04120865\A4=108.68284141\A5=111.27494938\A6=112.4043
 4252\A7=103.74836567\A8=108.78656781\A9=106.9740094\A10=106.99984483\A
 11=111.39341344\A12=107.66900181\A13=106.66132073\A14=111.39649264\A15
 =108.5144919\A16=112.65578866\A17=109.36856302\D4=-118.99930597\D5=121
 .11581716\D6=-54.96443591\D7=118.90352859\D8=-125.05278141\D9=178.1291
 0029\D10=-116.73601768\D11=121.41801149\D12=-64.02282955\D13=-116.5939
 6883\D14=122.29235178\D15=46.83050344\D16=-121.03565175\D17=119.004645
 68\\Version=ES64L-G16RevA.03\HF=-289.0469697\RMSD=4.455e-09\RMSF=6.048
 e-04\ZeroPoint=0.1527006\Thermal=0.16013\Dipole=-1.4214714,0.001285,0.
 1633109\DipoleDeriv=0.2892576,0.0093438,-0.0889733,0.0238838,0.0299789
 ,-0.0088417,-0.101099,-0.0080254,0.0976371,0.2547871,-0.0275428,0.0112
 484,-0.0240133,0.1145598,-0.0465795,0.0727952,-0.0503312,0.2802056,-0.
 7083175,0.0161573,0.0365935,-0.0079495,-0.5556449,0.0477588,0.0561652,
 0.0285147,-0.6394923,0.2179555,-0.0543214,-0.0173905,-0.0083972,0.1846
 865,-0.0708178,-0.0610834,-0.0213846,0.0711487,0.2038377,0.0580433,0.0
 003122,0.0015407,0.141093,0.0699912,-0.05304,0.0446301,0.0695198,-0.03
 89128,0.0747912,0.0431574,0.0814356,0.067884,0.0420192,0.0008579,0.075
 5129,0.0003609,0.0338432,-0.0492007,-0.0314164,-0.0229819,-0.0931425,-
 0.0392134,-0.0075734,0.000754,0.0164212,-0.2025958,0.0466338,0.1021312
 ,0.0146568,0.03473,0.0234739,0.048975,0.0115003,-0.0749552,0.0711308,0
 .0221058,0.0123547,0.0180907,0.0661626,-0.0390804,-0.0269751,0.0136246
 ,-0.0178488,0.0278169,-0.0629577,-0.0454734,-0.0058826,-0.010998,-0.02
 78403,-0.0339009,-0.0709905,0.0533464,-0.1754689,0.0812774,0.0404826,0
 .0124985,-0.0024848,0.0428132,0.0911307,0.0081217,0.0350419,0.0273759,
 0.0517812,-0.0320597,0.0092068,-0.0276367,0.0317487,-0.0194974,0.05917
 76,0.0815898,0.0692653,-0.022064,0.0084723,-0.008916,0.0742782,0.04905
 6,-0.0263612,-0.0020222,-0.0156366,-0.1712947,-0.075829,0.034479,-0.01
 88895,0.0054689,-0.0405131,0.0879388,-0.0147271,0.0346165,0.0282114,0.
 0198858,-0.0130772,-0.0118116,0.0612951,-0.0137453,0.0620303,-0.046108
 6,0.1386154,-0.0032967,-0.0989202,-0.0133747,-0.054032,-0.1233455,0.01
 75236,-0.027306,-0.02709,0.0618802,0.0764053,0.0108161,-0.0474662,0.00
 15608,0.0331155,-0.0377532,-0.0630566,-0.0011564,-0.1924504\Polar=64.4
 7759,-1.727172,63.520972,2.2576446,-2.9805938,67.2640311\PG=C01 [X(C4H
 11N1O1)]\NImag=0\\0.41131097,-0.00343550,0.51794564,0.03954220,0.00556
 443,0.46901978,-0.06973687,0.00186339,-0.01895782,0.59337259,0.0021548
 3,-0.08972004,-0.00887086,0.03776628,0.57629264,-0.03199739,-0.0014639
 4,-0.09872635,-0.00790593,0.01944415,0.37657205,-0.17851336,0.00174702
 ,0.02770113,-0.02654627,-0.00153956,0.03709571,0.30533462,0.00167078,-
 0.08733849,-0.00264879,0.00092801,0.00353028,0.00147666,-0.00333639,0.
 06815263,0.03106116,-0.00096205,-0.09582953,0.04172054,0.00034399,-0.0
 2060644,-0.08113248,-0.00264800,0.10181649,-0.06637768,0.01035367,-0.0
 1281393,0.00312569,0.00273878,-0.00905548,-0.05300939,0.02999335,0.001
 92870,0.55782261,0.00378945,-0.13367013,0.02427610,0.00127551,-0.00316
 460,0.01039961,0.01952394,0.00356731,-0.00642008,0.08263430,0.47989386
 ,-0.00988039,0.02261813,-0.09775333,-0.01844691,0.03174896,-0.02073290
 ,0.00895852,-0.01025632,0.00714264,-0.02370397,0.05562119,0.60130800,-
 0.06716954,-0.01009609,-0.01378824,0.00307399,-0.00187315,-0.00804733,
 -0.05293328,-0.02856261,0.00121218,0.01234605,0.00826535,0.00440188,0.
 55336598,-0.00209543,-0.13019349,-0.02174908,-0.00039787,-0.00000351,-
 0.00889456,-0.01833255,0.00439666,0.00638965,-0.01031426,-0.03835572,-
 0.00984572,-0.08605202,0.49375261,-0.01012314,-0.02372592,-0.10141135,
 -0.01664441,-0.02962429,-0.01758976,0.00752649,0.00951927,0.00856397,0
 .00403968,0.00685643,0.00486157,-0.03270013,-0.06299038,0.59032245,0.0
 0182748,0.00078016,-0.00926703,-0.11508692,0.04770663,-0.01787299,-0.0
 0116873,0.00053985,0.00034549,0.00053578,-0.00069258,0.00072362,-0.000
 28158,0.00025228,-0.00016676,0.53428658,-0.00399235,0.00236724,0.00752
 101,0.05044040,-0.15545468,0.02849283,0.00212892,-0.00020437,0.0015600
 3,-0.00041344,0.00014981,-0.00140626,-0.00010246,0.00173729,0.00053233
 ,0.04296364,0.52183580,-0.02013339,0.02981365,-0.02376917,-0.01741778,
 0.02742044,-0.08874779,-0.00339264,0.00232750,-0.00025635,0.00138775,-
 0.00225399,-0.00550984,0.00050865,0.00070288,-0.00080323,-0.02601160,0
 .02384348,0.55499785,-0.00133347,-0.00131640,-0.00068402,-0.10064950,-
 0.10268557,-0.02780410,0.00050176,0.00085922,0.00092655,-0.00037217,-0
 .00063384,-0.00018231,-0.00007482,0.00045236,-0.00075222,0.00837474,0.
 01734039,0.00371031,0.10428849,-0.00327625,-0.00378117,-0.00183842,-0.
 10094793,-0.25117799,-0.05704631,0.00118606,0.00112721,0.00136787,0.00
 060170,0.00048900,0.00182936,0.00072964,0.00127246,-0.00004551,-0.0097
 4281,-0.02320693,-0.00367148,0.10757034,0.27277215,-0.01798644,-0.0329
 3950,-0.02270675,-0.02069507,-0.04784422,-0.05730360,-0.00211049,0.002
 25873,0.00384207,-0.00009024,-0.00283750,0.00056755,0.00162024,0.00230
 359,-0.00625434,0.00502355,0.01245571,0.00230341,0.03280077,0.05562456
 ,0.07548429,-0.00321678,-0.00041362,-0.00205749,-0.26973750,-0.0043397
 4,0.07164117,0.00221331,0.00064023,0.00354923,-0.00085804,0.00037239,-
 0.00038268,-0.00094556,-0.00039529,-0.00028000,-0.01467609,-0.00073819
 ,0.00564979,-0.01206219,0.00060137,0.00412034,0.29585148,0.00100052,-0
 .00166779,-0.00136288,-0.00476076,-0.05134138,0.00043832,0.00036969,0.
 00188612,0.00097000,-0.00043413,-0.00016169,0.00048138,0.00032237,-0.0
 0004161,-0.00027758,0.02486725,-0.00008052,-0.00886213,-0.02466424,0.0
 0204745,0.00962431,0.00134965,0.05097887,0.03233794,0.00153239,-0.0079
 2120,0.06439518,-0.00163336,-0.07316347,0.00418462,-0.00043774,-0.0094
 1232,0.00070705,-0.00078323,0.00072534,0.00047765,0.00051481,0.0009896
 0,-0.01379153,0.00044483,0.00642867,-0.00727416,0.00096017,0.00368486,
 -0.07915045,-0.00283025,0.08056316,-0.00179319,0.00270669,-0.01803287,
 -0.00194602,0.00201767,0.00040522,0.00147324,-0.00076738,0.00029076,-0
 .04786650,-0.00027526,0.01775966,-0.00033547,-0.00103301,0.00010400,0.
 00053136,0.00011825,-0.00093590,0.00002380,0.00019666,0.00021389,0.000
 32285,0.00009943,-0.00025796,0.04764326,0.00279792,-0.00698609,0.03480
 743,0.00248557,-0.00467166,-0.00052301,-0.00403573,0.00125294,-0.00114
 561,0.00017474,-0.04732458,-0.01628643,0.00038949,0.00142089,0.0020430
 9,0.00014417,0.00081967,0.00184048,0.00034000,0.00027222,0.00014581,-0
 .00012718,-0.00012362,-0.00014868,-0.00317087,0.05531217,-0.00053183,0
 .00203486,-0.01466386,-0.00130074,0.00231628,0.00064847,0.00123414,-0.
 00157415,0.00239193,0.01088940,-0.00546098,-0.32670987,0.00025157,-0.0
 0128471,0.00022713,0.00029308,-0.00036331,-0.00030234,0.00017136,0.000
 06956,0.00027065,0.00012289,-0.00014910,0.00022531,-0.01201336,0.00496
 832,0.35048859,0.00549868,0.01554465,0.00441050,-0.00017222,0.00036041
 ,0.00078221,0.00198062,0.00001810,-0.00038805,-0.12952239,-0.12079315,
 -0.05379724,-0.00156359,0.00172759,-0.00058502,0.00010259,0.00014802,0
 .00023267,0.00051429,0.00023891,-0.00003731,-0.00002985,-0.00016324,-0
 .00003619,0.00126217,0.00173793,0.00110286,0.13371859,-0.01409319,-0.0
 3220693,-0.00896882,-0.00104805,0.00011347,-0.00255037,-0.00232704,0.0
 0443903,0.00097721,-0.10967144,-0.20661415,-0.07250680,0.00441129,-0.0
 0327759,0.00291831,0.00034179,0.00031802,0.00018998,0.00041948,0.00063
 000,0.00100394,0.00008111,0.00002657,0.00009813,-0.00021041,0.00123474
 ,-0.00030955,0.12147851,0.23193449,0.00425585,0.01237453,0.00236311,0.
 00061624,0.00159704,0.00068871,0.00193148,-0.00042420,-0.00088939,-0.0
 5339958,-0.07874040,-0.08280973,-0.00068505,0.00114720,-0.00073076,0.0
 0000003,-0.00016167,0.00010188,-0.00037533,0.00064958,-0.00044443,0.00
 004966,-0.00000920,-0.00007370,-0.01715941,-0.02463436,-0.00855535,0.0
 5880383,0.07807070,0.08555022,-0.01408567,-0.00455911,0.00675473,-0.00
 044317,-0.00045349,0.00126365,-0.00338349,0.00686493,-0.00188006,-0.27
 278923,0.00610166,0.07618274,-0.00048018,-0.00119146,0.00005515,0.0002
 8534,0.00014689,-0.00065518,-0.00016964,0.00001449,0.00002165,0.001137
 67,0.00028091,-0.00094545,0.00036343,-0.00086167,-0.00004808,-0.012612
 04,0.00163878,0.00604672,0.30036603,0.02361359,0.00205399,-0.01121126,
 -0.00032262,0.00031604,-0.00062054,0.00725267,-0.00345629,0.00116197,-
 0.00035534,-0.05458188,0.00157909,0.00004455,0.00059410,0.00009165,-0.
 00032077,0.00001164,-0.00004086,-0.00010099,-0.00001441,0.00019862,-0.
 00002354,0.00002546,0.00073698,0.00024183,0.00000654,-0.00073549,-0.02
 150937,0.00415566,0.00946719,-0.00811665,0.05158309,-0.00958766,-0.000
 93357,0.00147751,-0.00011777,0.00021049,-0.00023223,-0.00218210,0.0010
 3177,0.00234131,0.07931380,-0.00062016,-0.07922034,0.00053892,-0.00025
 080,-0.00015720,0.00035060,-0.00026524,0.00014944,-0.00009484,-0.00012
 538,-0.00005611,-0.00043202,0.00048520,-0.00039848,0.02966619,-0.00076
 812,-0.00514099,-0.01039363,0.00157541,0.00375407,-0.08663893,-0.00014
 422,0.07688386,0.00623532,-0.01740842,0.00516479,0.00016701,0.00071487
 ,0.00069627,0.00225644,0.00019854,-0.00019256,-0.00197754,-0.00180253,
 -0.00095649,-0.12512860,0.12324556,-0.04319427,0.00028212,0.00043994,-
 0.00117067,0.00000368,-0.00003854,0.00007819,-0.00002101,0.00008676,-0
 .00005876,-0.00011904,-0.00000879,0.00001541,0.00076149,-0.00093648,0.
 00006202,0.00022422,-0.00018148,-0.00018697,0.12902796,0.01285483,-0.0
 3035530,0.00684831,0.00050391,-0.00016432,0.00160490,0.00211241,0.0041
 5030,-0.00055159,-0.00428912,-0.00278299,-0.00296067,0.11233899,-0.226
 23156,0.06356652,-0.00003778,0.00001153,0.00035670,0.00002351,0.000053
 27,-0.00000647,-0.00005316,-0.00006559,-0.00007782,-0.00002823,0.00022
 220,-0.00010827,0.00080726,-0.00145329,0.00051056,0.00009582,0.0003155
 3,-0.00013087,-0.12429862,0.25114607,0.00571271,-0.01517996,0.00341838
 ,0.00086565,-0.00020538,0.00062018,0.00202112,0.00088807,-0.00092355,-
 0.00125293,-0.00116683,-0.00105923,-0.04370946,0.06991512,-0.07178839,
 -0.00059829,-0.00054926,-0.00107161,-0.00003989,0.00017699,0.00009933,
 -0.00001024,-0.00002722,-0.00010791,-0.00010658,-0.00025108,0.00039336
 ,0.00007243,-0.00070382,0.00069605,-0.00015657,0.00009875,-0.00012525,
 0.04855370,-0.06890474,0.07530764,-0.00204539,-0.00186281,-0.01928707,
 -0.00175497,-0.00212861,0.00049797,0.00157102,0.00062891,0.00044035,-0
 .00026743,0.00110625,0.00009610,-0.04780528,-0.00064113,0.01553694,0.0
 0018878,-0.00000824,-0.00009366,0.00033368,-0.00011683,-0.00099403,0.0
 0027793,-0.00011028,-0.00017356,0.00054324,0.00002155,0.00009155,-0.00
 011587,0.00006093,-0.00009411,-0.00005225,0.00000051,0.00020360,0.0010
 0109,0.00135849,-0.01664251,0.04762575,-0.00345684,-0.00473687,-0.0343
 6590,-0.00271062,-0.00496511,0.00005346,0.00383790,0.00095983,0.001076
 15,-0.00036037,0.00136112,-0.00203855,-0.00054757,-0.04900987,0.033900
 26,-0.00010418,-0.00050349,0.00044618,-0.00021533,0.00006872,-0.001867
 19,0.00009053,-0.00001945,0.00017606,-0.00010416,-0.00090792,0.0001253
 8,0.00004623,0.00022784,0.00022580,0.00005505,-0.00010735,0.00007891,-
 0.00159548,-0.00049287,0.02583747,0.00397987,0.05731755,-0.00097129,-0
 .00199697,-0.01694810,-0.00112621,-0.00206574,0.00122737,0.00149397,0.
 00144986,0.00247615,0.00029525,0.00141908,0.00022460,0.00853918,0.0234
 1862,-0.32480150,0.00015711,-0.00017174,0.00021686,-0.00015794,-0.0001
 2897,-0.00065605,0.00008864,0.00011594,0.00023541,0.00007755,-0.000219
 77,0.00092323,0.00002278,0.00010113,0.00040675,-0.00005454,-0.00011441
 ,-0.00005895,0.00083904,0.00090582,-0.00688837,-0.00918336,-0.02387357
 ,0.34903340,-0.01432971,0.00419218,0.00724694,-0.00058050,0.00022011,0
 .00117133,-0.00346871,-0.00647678,-0.00245412,-0.00059747,0.00121584,0
 .00009856,-0.27236692,-0.00518206,0.07803043,-0.00003279,-0.00006372,-
 0.00038995,0.00035355,0.00001960,-0.00005491,0.00113693,-0.00013793,-0
 .00092580,-0.00003939,-0.00005611,-0.00005187,0.00019076,-0.00007327,-
 0.00014884,0.00135042,-0.00021008,-0.00026685,-0.01211874,-0.00155822,
 0.00588980,0.00063968,0.00085566,-0.00000313,0.29978433,-0.02231003,0.
 00190427,0.01145680,0.00046105,0.00068704,0.00053910,-0.00706895,-0.00
 302211,-0.00128358,-0.00011381,0.00055406,-0.00005522,0.00091809,-0.05
 450533,-0.00180412,0.00010585,0.00002200,-0.00017849,0.00016012,0.0000
 3160,0.00023000,0.00002941,0.00000508,-0.00068798,-0.00002639,-0.00010
 085,0.00010224,0.00022489,0.00031602,-0.00003130,0.00022036,-0.0010621
 8,-0.00002710,0.02258537,0.00445111,-0.00999620,-0.00222642,-0.0001623
 7,0.00108791,0.00712834,0.05108667,-0.01123147,0.00116566,0.00239525,-
 0.00005809,0.00006048,-0.00015739,-0.00269818,-0.00138807,0.00253147,0
 .00058889,0.00025896,-0.00017494,0.08141190,0.00034457,-0.08080239,0.0
 0011170,-0.00008135,-0.00002589,0.00017455,0.00012714,0.00019040,-0.00
 049386,-0.00039870,-0.00043189,0.00018425,-0.00008090,-0.00003958,-0.0
 0015772,0.00016763,-0.00010599,-0.00024115,-0.00006233,0.00045967,-0.0
 0884006,-0.00120653,0.00300010,0.02963048,0.00029761,-0.00537866,-0.08
 836619,0.00060998,0.07847709,-0.00212239,-0.00036323,0.00288610,-0.019
 33708,0.00408282,0.00498146,0.00173524,-0.00192082,0.00218531,-0.00047
 516,0.00010464,0.00003945,-0.00032480,0.00019571,-0.00018345,-0.255103
 96,0.00939469,0.11114044,0.00062874,-0.00012925,-0.00023465,-0.0005802
 4,0.00312487,-0.00088745,0.00010137,-0.00005025,-0.00005932,0.00000526
 ,-0.00004146,0.00002113,0.00021418,0.00004569,-0.00012779,-0.00018887,
 -0.00014596,-0.00013470,0.00003913,-0.00005310,-0.00002713,0.00017473,
 -0.00008591,0.00002800,0.27826144,0.00080758,0.00130628,-0.00037757,0.
 02460441,-0.00154805,-0.01380114,-0.00166636,-0.00023675,-0.00090477,-
 0.00018743,0.00000066,-0.00014134,-0.00020898,0.00020487,0.00015961,0.
 00844637,-0.04963842,-0.00701287,-0.00023933,0.00061321,-0.00059289,0.
 00256493,-0.00329713,0.00299086,-0.00007265,0.00002104,0.00005857,0.00
 007692,-0.00005509,-0.00001833,-0.00030346,0.00017693,-0.00004912,-0.0
 0014600,-0.00002677,0.00003942,0.00005837,0.00005814,0.00003856,-0.000
 13238,-0.00024092,0.00000136,-0.01420994,0.05224511,-0.00111895,-0.000
 51496,0.00001575,-0.01234545,-0.00008032,0.00843485,0.00084944,-0.0000
 3982,-0.00186249,0.00103875,-0.00001098,-0.00004597,0.00003577,-0.0000
 6952,-0.00033462,0.11381857,-0.00829289,-0.10450659,0.00043127,-0.0002
 9190,0.00037006,-0.00184428,0.00237803,-0.00170745,-0.00000962,0.00003
 318,-0.00006778,-0.00005675,0.00003720,0.00000903,0.00037937,-0.000424
 44,0.00024682,-0.00028525,-0.00010014,0.00004126,-0.00003339,-0.000061
 10,-0.00006909,0.00033381,0.00011554,0.00009472,-0.12183282,0.00798967
 ,0.11052632,0.00009400,-0.00057647,0.00003779,0.00990352,0.01869562,0.
 00366415,0.00054611,-0.00002981,0.00100143,0.00008653,0.00003596,0.000
 14858,0.00035171,-0.00061407,-0.00063972,-0.10908667,-0.11009290,-0.01
 122626,-0.00142147,0.00335138,-0.00224281,0.00131550,-0.00072689,0.000
 82553,-0.00004733,-0.00010638,-0.00005166,-0.00004917,-0.00008079,0.00
 002928,0.00003603,-0.00002322,-0.00000563,-0.00017768,0.00023958,-0.00
 053773,-0.00012879,0.00018150,0.00001622,-0.00014272,0.00005419,-0.000
 05221,-0.01132373,-0.02480110,-0.00598828,0.11362066,-0.00028297,-0.00
 018556,-0.00098052,-0.01256286,-0.02273521,-0.00354483,0.00015987,0.00
 022852,0.00069823,-0.00007137,0.00002321,0.00028146,0.00006147,-0.0006
 7507,-0.00060006,-0.10741232,-0.24430243,-0.01920063,0.00351666,-0.002
 37188,0.00217840,0.00032254,0.00124611,-0.00022354,0.00010449,0.000036
 24,0.00011755,0.00009706,0.00023345,-0.00001871,0.00000953,-0.00003243
 ,-0.00004597,-0.00059640,0.00082594,-0.00008065,-0.00007898,0.00054434
 ,0.00000482,0.00019942,-0.00003009,0.00013278,0.00063170,0.00203089,0.
 00055863,0.11818920,0.26943215,0.00088328,0.00055641,0.00096208,0.0074
 5055,0.01117451,0.00074736,-0.00025378,-0.00036571,-0.00074883,-0.0002
 2331,-0.00009122,-0.00016293,-0.00049147,0.00035810,-0.00062246,-0.011
 23510,-0.02087296,-0.04960646,-0.00132104,0.00197438,0.00003440,0.0000
 2492,-0.00076591,0.00019310,-0.00003999,-0.00005243,-0.00007898,0.0000
 1582,-0.00013177,0.00005033,0.00001217,0.00002307,0.00002646,-0.000508
 11,0.00004730,-0.00165008,0.00003480,-0.00007813,0.00007646,-0.0000218
 0,-0.00009813,-0.00002596,0.00590273,0.01425633,0.00249314,0.01532589,
 0.02193170,0.05038154,-0.00424239,0.00284390,0.00114430,-0.00365177,-0
 .00343792,-0.01951592,0.00141087,-0.00124811,0.00138557,0.00019633,-0.
 00022793,-0.00105913,0.00027191,0.00037564,-0.00002357,-0.05097802,-0.
 00770985,-0.04120257,0.00106055,-0.00025855,0.00056729,-0.00012840,-0.
 00050396,0.00057334,-0.00011777,0.00032562,-0.00011541,0.00003069,0.00
 005024,0.00004608,0.00003835,-0.00003479,-0.00003892,-0.00022788,0.000
 07627,0.00007348,-0.00005031,0.00010091,-0.00000615,0.00004656,-0.0000
 5616,0.00000917,0.00829615,0.00540905,0.02662781,-0.00357651,-0.002287
 06,-0.01555558,0.05162164,0.00425304,-0.00473555,0.00190003,0.00242220
 ,0.00400708,0.02599569,-0.00001191,0.00056720,-0.00062941,-0.00028582,
 0.00061670,0.00133774,-0.00003836,-0.00108512,-0.00051962,-0.00783755,
 -0.05388217,-0.04572082,-0.00082637,0.00117511,0.00006410,0.00003855,0
 .00058313,-0.00063164,0.00020333,-0.00048392,0.00019281,-0.00004074,-0
 .00002225,-0.00000444,0.00005742,0.00001556,-0.00002124,-0.00025831,0.
 00039675,0.00010931,-0.00004159,0.00036773,0.00002944,0.00005943,0.000
 06599,0.00005170,-0.00058021,-0.00161399,-0.00122619,-0.00369581,-0.00
 426819,-0.02786554,0.00658271,0.05829594,-0.00023119,0.00205682,0.0000
 7779,-0.00003198,-0.00399216,-0.01167907,-0.00122697,0.00083094,-0.000
 57713,0.00035017,-0.00044599,-0.00065060,0.00042375,-0.00000976,0.0003
 3128,-0.04188046,-0.04268555,-0.28959885,0.00047105,0.00036835,0.00057
 426,-0.00059562,0.00018980,0.00017098,-0.00014584,0.00027207,-0.000009
 92,0.00000882,0.00003150,-0.00001081,-0.00009623,-0.00000379,0.0000504
 0,-0.00001629,0.00020698,0.00003809,-0.00003010,0.00006716,-0.00001951
 ,-0.00008742,0.00002056,-0.00000600,-0.00369729,-0.00263633,-0.0136379
 5,-0.00030458,-0.00120867,-0.00206917,0.04709020,0.04693807,0.31701621
 \\-0.00303027,-0.00003873,-0.00006911,0.00307563,0.00000502,0.00005107
 ,-0.00003221,0.00002715,0.00001478,0.00000801,-0.00000321,0.00000472,0
 .00002080,0.00000344,0.00001564,-0.00001656,0.00003540,-0.00001490,0.0
 0000179,0.00001183,0.00000229,0.00000945,-0.00000317,-0.00001836,0.000
 00082,-0.00000321,0.00000574,-0.00000316,-0.00000417,0.00000426,-0.000
 01203,0.00000607,0.00000247,0.00000593,-0.00000224,0.00001488,-0.00000
 999,0.00000175,0.00000128,-0.00000947,-0.00000038,-0.00000232,-0.00000
 670,-0.00000397,-0.00001025,-0.00000302,-0.00002527,-0.00000378,0.0000
 0097,-0.00000632,0.00000159\\\@


 THE SCIENTIFIC THEORIST IS NOT TO BE ENVIED. FOR NATURE, OR MORE
 PRECISELY EXPERIMENT, IS AN INEXORABLE AND NOT VERY FRIENDLY JUDGE OF HIS
 WORK.  IT NEVER SAYS "YES" TO A THEORY. IN THE MOST FAVORABLE CASES
 IT SAYS "MAYBE", AND IN THE GREAT MAJORITY OF CASES SIMPLY "NO"...
 PROBABLY EVERY THEORY WILL SOME DAY EXPERIENCE ITS "NO" - MOST
 THEORIES, SOON AFTER CONCEPTION.  -- A.EINSTEIN, NOV 11, 1922.
 Job cpu time:       0 days  0 hours 54 minutes 41.1 seconds.
 Elapsed time:       0 days  0 hours  4 minutes 34.8 seconds.
 File lengths (MBytes):  RWF=     94 Int=      0 D2E=      0 Chk=     32 Scr=      1
 Normal termination of Gaussian 16 at Fri Jun 10 11:57:45 2022.
