 Entering Gaussian System, Link 0=g16
 Input=ts_zmat_field_N25.gjf
 Output=ts_zmat_field_N25.out
 Initial command:
 /software/gaussian/g16-a03/l1.exe "/local_scratch/9886699/Gau-14995.inp" -scrdir="/local_scratch/9886699/"
 Entering Link 1 = /software/gaussian/g16-a03/l1.exe PID=     14996.
  
 Copyright (c) 1988,1990,1992,1993,1995,1998,2003,2009,2016,
            Gaussian, Inc.  All Rights Reserved.
  
 This is part of the Gaussian(R) 16 program.  It is based on
 the Gaussian(R) 09 system (copyright 2009, Gaussian, Inc.),
 the Gaussian(R) 03 system (copyright 2003, Gaussian, Inc.),
 the Gaussian(R) 98 system (copyright 1998, Gaussian, Inc.),
 the Gaussian(R) 94 system (copyright 1995, Gaussian, Inc.),
 the Gaussian 92(TM) system (copyright 1992, Gaussian, Inc.),
 the Gaussian 90(TM) system (copyright 1990, Gaussian, Inc.),
 the Gaussian 88(TM) system (copyright 1988, Gaussian, Inc.),
 the Gaussian 86(TM) system (copyright 1986, Carnegie Mellon
 University), and the Gaussian 82(TM) system (copyright 1983,
 Carnegie Mellon University). Gaussian is a federally registered
 trademark of Gaussian, Inc.
  
 This software contains proprietary and confidential information,
 including trade secrets, belonging to Gaussian, Inc.
  
 This software is provided under written license and may be
 used, copied, transmitted, or stored only in accord with that
 written license.
  
 The following legend is applicable only to US Government
 contracts under FAR:
  
                    RESTRICTED RIGHTS LEGEND
  
 Use, reproduction and disclosure by the US Government is
 subject to restrictions as set forth in subparagraphs (a)
 and (c) of the Commercial Computer Software - Restricted
 Rights clause in FAR 52.227-19.
  
 Gaussian, Inc.
 340 Quinnipiac St., Bldg. 40, Wallingford CT 06492
  
  
 ---------------------------------------------------------------
 Warning -- This program may not be used in any manner that
 competes with the business of Gaussian, Inc. or will provide
 assistance to any competitor of Gaussian, Inc.  The licensee
 of this program is prohibited from giving any competitor of
 Gaussian, Inc. access to this program.  By using this program,
 the user acknowledges that Gaussian, Inc. is engaged in the
 business of creating and licensing software in the field of
 computational chemistry and represents and warrants to the
 licensee that it is not a competitor of Gaussian, Inc. and that
 it will not use this program in any manner prohibited above.
 ---------------------------------------------------------------
  

 Cite this work as:
 Gaussian 16, Revision A.03,
 M. J. Frisch, G. W. Trucks, H. B. Schlegel, G. E. Scuseria, 
 M. A. Robb, J. R. Cheeseman, G. Scalmani, V. Barone, 
 G. A. Petersson, H. Nakatsuji, X. Li, M. Caricato, A. V. Marenich, 
 J. Bloino, B. G. Janesko, R. Gomperts, B. Mennucci, H. P. Hratchian, 
 J. V. Ortiz, A. F. Izmaylov, J. L. Sonnenberg, D. Williams-Young, 
 F. Ding, F. Lipparini, F. Egidi, J. Goings, B. Peng, A. Petrone, 
 T. Henderson, D. Ranasinghe, V. G. Zakrzewski, J. Gao, N. Rega, 
 G. Zheng, W. Liang, M. Hada, M. Ehara, K. Toyota, R. Fukuda, 
 J. Hasegawa, M. Ishida, T. Nakajima, Y. Honda, O. Kitao, H. Nakai, 
 T. Vreven, K. Throssell, J. A. Montgomery, Jr., J. E. Peralta, 
 F. Ogliaro, M. J. Bearpark, J. J. Heyd, E. N. Brothers, K. N. Kudin, 
 V. N. Staroverov, T. A. Keith, R. Kobayashi, J. Normand, 
 K. Raghavachari, A. P. Rendell, J. C. Burant, S. S. Iyengar, 
 J. Tomasi, M. Cossi, J. M. Millam, M. Klene, C. Adamo, R. Cammi, 
 J. W. Ochterski, R. L. Martin, K. Morokuma, O. Farkas, 
 J. B. Foresman, and D. J. Fox, Gaussian, Inc., Wallingford CT, 2016.
 
 ******************************************
 Gaussian 16:  ES64L-G16RevA.03 25-Dec-2016
                18-Mar-2022 
 ******************************************
 %nprocshared=12
 Will use up to   12 processors via shared memory.
 %chk=checkpoint.chk
 %mem=12GB
 ----------------------------------------------------------------------
 # Opt=(TS, CalcFC, noeigentest, Z-matrix, MaxStep=10) Field=read NoSym
 m B3LYP/Def2TZVP
 ----------------------------------------------------------------------
 1/5=1,8=10,10=4,11=1,18=40,26=3,38=1/1,3;
 2/12=2,15=1,17=6,18=5,29=3,40=1/2;
 3/5=44,7=101,11=2,14=-6,25=1,30=1,71=2,74=-5,140=1/1,2,3;
 4//1;
 5/5=2,38=5/2;
 8/6=4,10=90,11=11/1;
 11/6=1,8=1,9=11,15=111,16=1,31=1/1,2,10;
 10/6=1,13=1,31=1/2;
 6/7=2,8=2,9=2,10=2,28=1/1;
 7/10=1,18=20,25=1,30=1/1,2,3,16;
 1/5=1,8=10,10=4,11=1,18=40,26=3/3(2);
 2/15=1,29=3/2;
 99//99;
 2/15=1,29=3/2;
 3/5=44,7=101,11=2,14=-2,25=1,30=1,71=1,74=-5/1,2,3;
 4/5=5,16=3,69=1/1;
 5/5=2,38=5/2;
 7/30=1/1,2,3,16;
 1/5=1,8=10,11=1,18=40,26=3/3(-5);
 2/15=1,29=3/2;
 6/7=2,8=2,9=2,10=2,19=2,28=1/1;
 99/9=1/99;
 -----------------
 ts_zmat_initalOpt
 -----------------
 Symbolic Z-matrix:
 Charge =  0 Multiplicity = 1
 H
 C                    1    R2
 C                    2    R3       1    A3
 C                    2    R4       1    A4       3    D4       0
 H                    3    R5       2    A5       1    D5       0
 C                    3    R6       2    A6       5    D6       0
 H                    4    R7       2    A7       1    D7       0
 H                    4    R8       2    A8       7    D8       0
 H                    6    R9       3    A9       2    D9       0
 C                    6    R10      3    A10      9    D10      0
 H                    10   R11      6    A11      3    D11      0
 O                    10   R12      6    A12      11   D12      0
       Variables:
  R2                    1.08301                  
  R3                    1.38897                  
  R4                    1.39155                  
  R5                    1.08604                  
  R6                    1.39888                  
  R7                    1.08254                  
  R8                    1.08113                  
  R9                    1.08157                  
  R10                   1.41318                  
  R11                   1.09689                  
  R12                   1.25677                  
  A3                  120.74978                  
  A4                  121.10235                  
  A5                  120.00861                  
  A6                  120.8886                   
  A7                  120.84504                  
  A8                  118.50256                  
  A9                  119.66859                  
  A10                 118.97527                  
  A11                 115.63488                  
  A12                 128.07093                  
  D4                  169.30337                  
  D5                  -20.23415                  
  D6                  168.74001                  
  D7                   -6.47072                  
  D8                  152.61335                  
  D9                 -176.82555                  
  D10                 154.18448                  
  D11                -142.96181                  
  D12                 171.43426                  
 

 GradGradGradGradGradGradGradGradGradGradGradGradGradGradGradGradGradGrad
 Berny optimization.
 Initialization pass.
                       ----------------------------
                       !    Initial Parameters    !
                       ! (Angstroms and Degrees)  !
 ----------------------                            ----------------------
 !      Name          Value   Derivative information (Atomic Units)     !
 ------------------------------------------------------------------------
 !       R2          1.083    calculate D2E/DX2 analytically            !
 !       R3          1.389    calculate D2E/DX2 analytically            !
 !       R4          1.3915   calculate D2E/DX2 analytically            !
 !       R5          1.086    calculate D2E/DX2 analytically            !
 !       R6          1.3989   calculate D2E/DX2 analytically            !
 !       R7          1.0825   calculate D2E/DX2 analytically            !
 !       R8          1.0811   calculate D2E/DX2 analytically            !
 !       R9          1.0816   calculate D2E/DX2 analytically            !
 !       R10         1.4132   calculate D2E/DX2 analytically            !
 !       R11         1.0969   calculate D2E/DX2 analytically            !
 !       R12         1.2568   calculate D2E/DX2 analytically            !
 !       A3        120.7498   calculate D2E/DX2 analytically            !
 !       A4        121.1024   calculate D2E/DX2 analytically            !
 !       A5        120.0086   calculate D2E/DX2 analytically            !
 !       A6        120.8886   calculate D2E/DX2 analytically            !
 !       A7        120.845    calculate D2E/DX2 analytically            !
 !       A8        118.5026   calculate D2E/DX2 analytically            !
 !       A9        119.6686   calculate D2E/DX2 analytically            !
 !       A10       118.9753   calculate D2E/DX2 analytically            !
 !       A11       115.6349   calculate D2E/DX2 analytically            !
 !       A12       128.0709   calculate D2E/DX2 analytically            !
 !       D4        169.3034   calculate D2E/DX2 analytically            !
 !       D5        -20.2341   calculate D2E/DX2 analytically            !
 !       D6        168.74     calculate D2E/DX2 analytically            !
 !       D7         -6.4707   calculate D2E/DX2 analytically            !
 !       D8        152.6134   calculate D2E/DX2 analytically            !
 !       D9       -176.8255   calculate D2E/DX2 analytically            !
 !       D10       154.1845   calculate D2E/DX2 analytically            !
 !       D11      -142.9618   calculate D2E/DX2 analytically            !
 !       D12       171.4343   calculate D2E/DX2 analytically            !
 ------------------------------------------------------------------------
 Trust Radius=1.00D-01 FncErr=1.00D-07 GrdErr=1.00D-06 EigMax=2.50D+02 EigMin=1.00D-04
 Number of steps in this run=     40 maximum allowed number of steps=    100.
 Search for a saddle point of order  1.
 GradGradGradGradGradGradGradGradGradGradGradGradGradGradGradGradGradGrad

 ---------------------------------------------------------------------------------------------------
                            Z-MATRIX (ANGSTROMS AND DEGREES)
   CD    Cent   Atom    N1       Length/X        N2       Alpha/Y        N3        Beta/Z          J
 ---------------------------------------------------------------------------------------------------
      1      1  H 
      2      2  C        1   1.083006(     1)
      3      3  C        2   1.388974(     2)      1  120.750(    12)
      4      4  C        2   1.391548(     3)      1  121.102(    13)      3  169.303(    22)      0
      5      5  H        3   1.086045(     4)      2  120.009(    14)      1  -20.234(    23)      0
      6      6  C        3   1.398883(     5)      2  120.889(    15)      5  168.740(    24)      0
      7      7  H        4   1.082539(     6)      2  120.845(    16)      1   -6.471(    25)      0
      8      8  H        4   1.081125(     7)      2  118.503(    17)      7  152.613(    26)      0
      9      9  H        6   1.081565(     8)      3  119.669(    18)      2 -176.826(    27)      0
     10     10  C        6   1.413178(     9)      3  118.975(    19)      9  154.184(    28)      0
     11     11  H       10   1.096888(    10)      6  115.635(    20)      3 -142.962(    29)      0
     12     12  O       10   1.256770(    11)      6  128.071(    21)     11  171.434(    30)      0
 ---------------------------------------------------------------------------------------------------
                         Z-Matrix orientation:                         
 ---------------------------------------------------------------------
 Center     Atomic      Atomic             Coordinates (Angstroms)
 Number     Number       Type             X           Y           Z
 ---------------------------------------------------------------------
      1          1           0        0.000000    0.000000    0.000000
      2          6           0        0.000000    0.000000    1.083006
      3          6           0        1.193696    0.000000    1.793174
      4          6           0       -1.170803    0.221154    1.801836
      5          1           0        2.111669   -0.325265    1.312527
      6          6           0        1.287500    0.627142    3.040077
      7          1           0       -2.087114    0.500831    1.297807
      8          1           0       -1.302641   -0.292623    2.743899
      9          1           0        2.239350    0.659874    3.552615
     10          6           0        0.363633    1.645875    3.365228
     11          1           0        0.766957    2.484675    3.945665
     12          8           0       -0.815351    1.783513    2.952283
 ---------------------------------------------------------------------
                    Distance matrix (angstroms):
                    1          2          3          4          5
     1  H    0.000000
     2  C    1.083006   0.000000
     3  C    2.154155   1.388974   0.000000
     4  C    2.160162   1.391548   2.374835   0.000000
     5  H    2.507523   2.148866   1.086045   3.363424   0.000000
     6  C    3.360511   2.425096   1.398883   2.782323   2.137934
     7  H    2.508223   2.157085   3.355583   1.082539   4.279303
     8  H    3.051472   2.130978   2.687229   1.081125   3.702351
     9  H    4.251022   3.398395   2.150455   3.858347   2.450468
    10  C    3.763761   2.837195   2.422656   2.613144   3.339851
    11  H    4.725474   3.867383   3.314956   3.670756   4.078901
    12  O    3.544247   2.709227   2.925871   1.972521   3.962725
                    6          7          8          9         10
     6  C    0.000000
     7  H    3.799932   0.000000
     8  H    2.764511   1.826514   0.000000
     9  H    1.081565   4.881367   3.755924   0.000000
    10  C    1.413178   3.404632   2.630645   2.127352   0.000000
    11  H    2.131076   4.369498   3.666178   2.377463   1.096888
    12  O    2.401434   2.449479   2.142713   3.309707   1.256770
                   11         12
    11  H    0.000000
    12  O    1.995529   0.000000
 Symmetry turned off by external request.
 Stoichiometry    C5H6O
 Framework group  C1[X(C5H6O)]
 Deg. of freedom    30
 Full point group                 C1      NOp   1
 Rotational constants (GHZ):           5.5367278           4.6725769           2.7070362
 Standard basis: def2TZVP (5D, 7F)
 The following finite field(s) will be applied:
 An electric field of             -0.0012  0.0002  0.0022
   222 basis functions,   354 primitive gaussians,   252 cartesian basis functions
    22 alpha electrons       22 beta electrons
       nuclear repulsion energy       217.8751587645 Hartrees.
 NAtoms=   12 NActive=   12 NUniq=   12 SFac= 1.00D+00 NAtFMM=   60 NAOKFM=F Big=F
 Integral buffers will be    131072 words long.
 Raffenetti 2 integral format.
 Two-electron integral symmetry is turned off.
 One-electron integrals computed using PRISM.
   1 Symmetry operations used in ECPInt.
 ECPInt:  NShTT=    4095 NPrTT=   12396 LenC2=    4075 LenP2D=   10363.
 LDataN:  DoStor=T MaxTD1= 6 Len=  172
 NBasis=   222 RedAO= T EigKep=  1.17D-04  NBF=   222
 NBsUse=   222 1.00D-06 EigRej= -1.00D+00 NBFU=   222
 The nuclear repulsion energy is now       218.2999720722 hartrees.
 ExpMin= 9.52D-02 ExpMax= 2.70D+04 ExpMxC= 9.22D+02 IAcc=3 IRadAn=         5 AccDes= 0.00D+00
 Harris functional with IExCor=  402 and IRadAn=       5 diagonalized for initial guess.
 HarFok:  IExCor=  402 AccDes= 0.00D+00 IRadAn=         5 IDoV= 1 UseB2=F ITyADJ=14
 ICtDFT=  3500011 ScaDFX=  1.000000  1.000000  1.000000  1.000000
 FoFCou: FMM=F IPFlag=           0 FMFlag=      100000 FMFlg1=           0
         NFxFlg=           0 DoJE=T BraDBF=F KetDBF=T FulRan=T
         wScrn=  0.000000 ICntrl=       500 IOpCl=  0 I1Cent=   200000004 NGrid=           0
         NMat0=    1 NMatS0=      1 NMatT0=    0 NMatD0=    1 NMtDS0=    0 NMtDT0=    0
 Symmetry not used in FoFCou.
 Keep R1 ints in memory in canonical form, NReq=319363861.
 Requested convergence on RMS density matrix=1.00D-08 within 128 cycles.
 Requested convergence on MAX density matrix=1.00D-06.
 Requested convergence on             energy=1.00D-06.
 No special actions if energy rises.
 Integral accuracy reduced to 1.0D-05 until final iterations.
 Initial convergence to 1.0D-05 achieved.  Increase integral accuracy.
 SCF Done:  E(RB3LYP) =  -269.392760389     A.U. after   14 cycles
            NFock= 14  Conv=0.84D-08     -V/T= 2.0050
 DoSCS=F DFT=T ScalE2(SS,OS)=  1.000000  1.000000
 Range of M.O.s used for correlation:     1   222
 NBasis=   222 NAE=    22 NBE=    22 NFC=     0 NFV=     0
 NROrb=    222 NOA=    22 NOB=    22 NVA=   200 NVB=   200

 **** Warning!!: The largest alpha MO coefficient is  0.19359142D+02

   1 Symmetry operations used in ECPInt.
 ECPInt:  NShTT=    4095 NPrTT=   12396 LenC2=    4075 LenP2D=   10363.
 LDataN:  DoStor=T MaxTD1= 7 Len=  274
 Symmetrizing basis deriv contribution to polar:
 IMax=3 JMax=2 DiffMx= 0.00D+00
 G2DrvN: will do    13 centers at a time, making    1 passes.
 Calling FoFCou, ICntrl=  3107 FMM=F I1Cent=   0 AccDes= 0.00D+00.
 End of G2Drv F.D. properties file   721 does not exist.
 End of G2Drv F.D. properties file   722 does not exist.
 End of G2Drv F.D. properties file   788 does not exist.
          IDoAtm=111111111111
          Differentiating once with respect to nuclear coordinates.
 Keep R1 ints in memory in canonical form, NReq=319333990.
          There are    39 degrees of freedom in the 1st order CPHF.  IDoFFX=6 NUNeed=     0.
     33 vectors produced by pass  0 Test12= 1.13D-14 2.56D-09 XBig12= 1.82D-01 2.51D-01.
 AX will form    33 AO Fock derivatives at one time.
     33 vectors produced by pass  1 Test12= 1.13D-14 2.56D-09 XBig12= 2.32D-02 4.15D-02.
     33 vectors produced by pass  2 Test12= 1.13D-14 2.56D-09 XBig12= 3.32D-04 2.18D-03.
     33 vectors produced by pass  3 Test12= 1.13D-14 2.56D-09 XBig12= 1.71D-06 1.97D-04.
     33 vectors produced by pass  4 Test12= 1.13D-14 2.56D-09 XBig12= 3.78D-09 8.38D-06.
     33 vectors produced by pass  5 Test12= 1.13D-14 2.56D-09 XBig12= 5.35D-12 3.68D-07.
      7 vectors produced by pass  6 Test12= 1.13D-14 2.56D-09 XBig12= 8.00D-15 1.76D-08.
 InvSVY:  IOpt=1 It=  1 EMax= 3.22D-15
 Solved reduced A of dimension   205 with    33 vectors.
 End of Minotr F.D. properties file   721 does not exist.
 End of Minotr F.D. properties file   722 does not exist.
 End of Minotr F.D. properties file   788 does not exist.

 **********************************************************************

            Population analysis using the SCF density.

 **********************************************************************

 Alpha  occ. eigenvalues --  -19.15201 -10.26246 -10.22991 -10.20503 -10.18113
 Alpha  occ. eigenvalues --  -10.17595  -1.05730  -0.83735  -0.76601  -0.67619
 Alpha  occ. eigenvalues --   -0.61685  -0.53629  -0.51878  -0.47973  -0.46890
 Alpha  occ. eigenvalues --   -0.45201  -0.40587  -0.39163  -0.38470  -0.33534
 Alpha  occ. eigenvalues --   -0.29856  -0.22449
 Alpha virt. eigenvalues --   -0.07826  -0.00902   0.03915   0.04610   0.06422
 Alpha virt. eigenvalues --    0.07013   0.08665   0.10600   0.11556   0.14787
 Alpha virt. eigenvalues --    0.17100   0.18816   0.19479   0.20430   0.21500
 Alpha virt. eigenvalues --    0.21619   0.23974   0.26695   0.27079   0.28289
 Alpha virt. eigenvalues --    0.29518   0.32596   0.32930   0.35244   0.36916
 Alpha virt. eigenvalues --    0.39245   0.39582   0.41303   0.41806   0.42853
 Alpha virt. eigenvalues --    0.43448   0.44188   0.44843   0.47188   0.48963
 Alpha virt. eigenvalues --    0.51619   0.52926   0.53979   0.56095   0.57517
 Alpha virt. eigenvalues --    0.61174   0.64933   0.67879   0.68612   0.74669
 Alpha virt. eigenvalues --    0.79125   0.81325   0.85928   0.86249   0.88686
 Alpha virt. eigenvalues --    0.91983   0.93078   0.95370   0.96081   0.97108
 Alpha virt. eigenvalues --    1.00254   1.02912   1.06283   1.09807   1.11208
 Alpha virt. eigenvalues --    1.13963   1.16347   1.18665   1.22552   1.22743
 Alpha virt. eigenvalues --    1.28055   1.30386   1.33492   1.38254   1.38990
 Alpha virt. eigenvalues --    1.41958   1.42992   1.45453   1.46937   1.50571
 Alpha virt. eigenvalues --    1.52536   1.56752   1.59153   1.62319   1.64068
 Alpha virt. eigenvalues --    1.66047   1.67739   1.72961   1.76909   1.77652
 Alpha virt. eigenvalues --    1.80193   1.81841   1.84771   1.87362   1.90927
 Alpha virt. eigenvalues --    1.93788   1.96229   2.04393   2.06069   2.09491
 Alpha virt. eigenvalues --    2.14152   2.14925   2.18753   2.19852   2.25242
 Alpha virt. eigenvalues --    2.27146   2.31407   2.36988   2.40011   2.43462
 Alpha virt. eigenvalues --    2.48798   2.51189   2.52185   2.53411   2.55170
 Alpha virt. eigenvalues --    2.58276   2.60588   2.62217   2.64631   2.67024
 Alpha virt. eigenvalues --    2.69537   2.70072   2.76089   2.77334   2.78970
 Alpha virt. eigenvalues --    2.80905   2.82896   2.83468   2.85612   2.88656
 Alpha virt. eigenvalues --    2.90758   2.93874   2.95879   2.97215   3.01004
 Alpha virt. eigenvalues --    3.01973   3.03663   3.05778   3.11145   3.12583
 Alpha virt. eigenvalues --    3.14175   3.16627   3.18839   3.21989   3.22884
 Alpha virt. eigenvalues --    3.23928   3.26839   3.27999   3.34444   3.35171
 Alpha virt. eigenvalues --    3.38400   3.40722   3.42758   3.44928   3.47604
 Alpha virt. eigenvalues --    3.48673   3.51535   3.57249   3.62225   3.62588
 Alpha virt. eigenvalues --    3.67429   3.84293   3.89034   3.90917   3.93289
 Alpha virt. eigenvalues --    3.96491   4.01520   4.02718   4.07621   4.10629
 Alpha virt. eigenvalues --    4.15293   4.16956   4.24961   4.29912   4.31560
 Alpha virt. eigenvalues --    4.37859   4.43188   4.46679   4.53472   4.63831
 Alpha virt. eigenvalues --    4.66091   4.71775   4.80426   4.84770   4.85913
 Alpha virt. eigenvalues --    5.04278   5.13798   5.24011   5.27895   5.51027
 Alpha virt. eigenvalues --    5.60859   5.98621   6.20955   6.33368   6.49384
 Alpha virt. eigenvalues --    6.71573   6.77459   6.96391   7.07301  22.05081
 Alpha virt. eigenvalues --   22.32864  22.50190  22.69115  22.86379  43.79881
          Condensed to atoms (all electrons):
               1          2          3          4          5          6
     1  H    0.546114   0.413218  -0.048331  -0.034663  -0.004135   0.006648
     2  C    0.413218   4.987157   0.488782   0.517143  -0.037119  -0.033504
     3  C   -0.048331   0.488782   4.891723  -0.090365   0.413415   0.465509
     4  C   -0.034663   0.517143  -0.090365   4.830473   0.009900  -0.005318
     5  H   -0.004135  -0.037119   0.413415   0.009900   0.545264  -0.047367
     6  C    0.006648  -0.033504   0.465509  -0.005318  -0.047367   5.267041
     7  H   -0.006489  -0.036900   0.009876   0.397681  -0.000247  -0.000487
     8  H    0.006858  -0.029996  -0.036309   0.425541   0.000168   0.035282
     9  H   -0.000191   0.009116  -0.050152  -0.000089  -0.007351   0.405084
    10  C   -0.002363  -0.047317  -0.023432  -0.046299   0.001816   0.412348
    11  H   -0.000007  -0.006265   0.005036   0.004338  -0.000797  -0.111809
    12  O    0.000517  -0.029241  -0.004596   0.077866  -0.000919  -0.130339
               7          8          9         10         11         12
     1  H   -0.006489   0.006858  -0.000191  -0.002363  -0.000007   0.000517
     2  C   -0.036900  -0.029996   0.009116  -0.047317  -0.006265  -0.029241
     3  C    0.009876  -0.036309  -0.050152  -0.023432   0.005036  -0.004596
     4  C    0.397681   0.425541  -0.000089  -0.046299   0.004338   0.077866
     5  H   -0.000247   0.000168  -0.007351   0.001816  -0.000797  -0.000919
     6  C   -0.000487   0.035282   0.405084   0.412348  -0.111809  -0.130339
     7  H    0.535658  -0.033447   0.000017   0.001336  -0.000003  -0.001053
     8  H   -0.033447   0.579846   0.000009  -0.012536  -0.001900  -0.054643
     9  H    0.000017   0.000009   0.571767  -0.035060  -0.000424   0.005800
    10  C    0.001336  -0.012536  -0.035060   4.662898   0.421455   0.509753
    11  H   -0.000003  -0.001900  -0.000424   0.421455   0.620690  -0.035525
    12  O   -0.001053  -0.054643   0.005800   0.509753  -0.035525   7.966324
 Mulliken charges:
               1
     1  H    0.122824
     2  C   -0.195074
     3  C   -0.021155
     4  C   -0.086208
     5  H    0.127372
     6  C   -0.263088
     7  H    0.134059
     8  H    0.121127
     9  H    0.101474
    10  C    0.157402
    11  H    0.105210
    12  O   -0.303943
 Sum of Mulliken charges =  -0.00000
 Mulliken charges with hydrogens summed into heavy atoms:
               1
     2  C   -0.072249
     3  C    0.106217
     4  C    0.168978
     6  C   -0.161614
    10  C    0.262611
    12  O   -0.303943
 APT charges:
               1
     1  H    0.088250
     2  C   -0.416798
     3  C   -0.330980
     4  C   -0.625937
     5  H    0.320990
     6  C   -0.590413
     7  H    0.331632
     8  H    0.552506
     9  H    0.677099
    10  C   -0.398065
    11  H    0.757248
    12  O   -0.365532
 Sum of APT charges =  -0.00000
 APT charges with hydrogens summed into heavy atoms:
               1
     2  C   -0.328548
     3  C   -0.009990
     4  C    0.258201
     6  C    0.086686
    10  C    0.359184
    12  O   -0.365532
 Electronic spatial extent (au):  <R**2>=           1433.1435
 Charge=             -0.0000 electrons
 Dipole moment (field-independent basis, Debye):
    X=              1.0178    Y=             -0.6319    Z=             -0.7740  Tot=              1.4263
 Quadrupole moment (field-independent basis, Debye-Ang):
   XX=            -33.1094   YY=            -39.2965   ZZ=            -37.6106
   XY=              2.6689   XZ=              4.0517   YZ=             -0.8003
 Traceless Quadrupole moment (field-independent basis, Debye-Ang):
   XX=              3.5627   YY=             -2.6243   ZZ=             -0.9384
   XY=              2.6689   XZ=              4.0517   YZ=             -0.8003
 Octapole moment (field-independent basis, Debye-Ang**2):
  XXX=            -14.9136  YYY=            -77.2550  ZZZ=           -253.4645  XYY=              0.9743
  XXY=            -27.3864  XXZ=            -79.7984  XZZ=              9.0995  YZZ=            -22.2337
  YYZ=            -87.4588  XYZ=             11.9513
 Hexadecapole moment (field-independent basis, Debye-Ang**3):
 XXXX=           -252.3919 YYYY=           -278.7780 ZZZZ=          -1384.5540 XXXY=             -2.1784
 XXXZ=            -48.1679 YYYX=             16.9397 YYYZ=           -233.4900 ZZZX=             -7.5598
 ZZZY=           -205.6982 XXYY=            -98.6040 XXZZ=           -268.6696 YYZZ=           -272.2702
 XXYZ=            -84.4259 YYXZ=              3.4788 ZZXY=             44.3477
 N-N= 2.182999720722D+02 E-N=-1.064062050224D+03  KE= 2.680626575401D+02
  Exact polarizability:   0.000   0.000   0.000   0.000   0.000   0.000
 Approx polarizability: 124.767 -11.574  97.334  11.271  33.873 110.244
   1 Symmetry operations used in ECPInt.
 ECPInt:  NShTT=    4095 NPrTT=   12396 LenC2=    4075 LenP2D=   10363.
 LDataN:  DoStor=T MaxTD1= 8 Len=  415
 Calling FoFJK, ICntrl=    100147 FMM=F ISym2X=0 I1Cent= 0 IOpClX= 0 NMat=1 NMatS=1 NMatT=0.
 -------------------------------------------------------------------
 Center     Atomic                   Forces (Hartrees/Bohr)
 Number     Number              X              Y              Z
 -------------------------------------------------------------------
      1        1           0.000054086   -0.000096821    0.000149796
      2        6          -0.000115919    0.000241726    0.000223664
      3        6          -0.000065975   -0.000747645   -0.000775174
      4        6           0.000376647   -0.000424841   -0.000903199
      5        1          -0.000184957    0.000194242   -0.000043291
      6        6          -0.000761585    0.000669674    0.001106770
      7        1           0.000054918   -0.000021020   -0.000207098
      8        1           0.000122970   -0.000012293    0.000152833
      9        1           0.000177672    0.000164602   -0.000246321
     10        6           0.001452302   -0.000877056   -0.000054376
     11        1           0.000282321    0.000166520   -0.000064499
     12        8          -0.001392480    0.000742912    0.000660896
 -------------------------------------------------------------------
 Cartesian Forces:  Max     0.001452302 RMS     0.000550535
 -----------------------------------------------------------------------------------------------
                       Internal Coordinate Forces (Hartree/Bohr or radian)
  Cent   Atom   N1       Length/X         N2         Alpha/Y        N3         Beta/Z          J
 -----------------------------------------------------------------------------------------------
      1  H 
      2  C        1  -0.000150(     1)
      3  C        2  -0.000125(     2)      1  -0.002136(    12)
      4  C        2  -0.001034(     3)      1  -0.001499(    13)      3   0.000912(    22)     0
      5  H        3  -0.000195(     4)      2  -0.000198(    14)      1   0.000273(    23)     0
      6  C        3   0.001622(     5)      2   0.004271(    15)      5  -0.000016(    24)     0
      7  H        4   0.000045(     6)      2  -0.000427(    16)      1   0.000258(    25)     0
      8  H        4   0.000124(     7)      2  -0.000199(    17)      7   0.000211(    26)     0
      9  H        6   0.000045(     8)      3  -0.000367(    18)      2   0.000369(    27)     0
     10  C        6  -0.000076(     9)      3   0.004614(    19)      9  -0.000149(    28)     0
     11  H       10   0.000197(    10)      6  -0.000378(    20)      3   0.001427(    29)     0
     12  O       10   0.001171(    11)      6   0.002643(    21)     11   0.001056(    30)     0
 -----------------------------------------------------------------------------------------------
 Internal  Forces:  Max     0.004613624 RMS     0.001453709

 GradGradGradGradGradGradGradGradGradGradGradGradGradGradGradGradGradGrad
 Berny optimization.
 Search for a saddle point.
 Step number   1 out of a maximum of   40
 All quantities printed in internal units (Hartrees-Bohrs-Radians)
 Swapping is turned off.
 Second derivative matrix not updated -- analytic derivatives used.
 ITU=  0
     Eigenvalues ---   -0.79247   0.01710   0.02755   0.04019   0.04359
     Eigenvalues ---    0.06279   0.09113   0.10999   0.12802   0.15322
     Eigenvalues ---    0.18973   0.20131   0.23873   0.28181   0.29503
     Eigenvalues ---    0.32198   0.34365   0.35044   0.35323   0.35533
     Eigenvalues ---    0.36421   0.39105   0.42193   0.45246   0.46688
     Eigenvalues ---    0.55645   0.58741   0.72123   1.06552   2.93414
 Eigenvectors required to have negative eigenvalues:
                          A10       A6        D8        R4        R12
   1                    0.46269   0.39717   0.28731  -0.28433  -0.25768
                          D4        R10       A12       D7        R3
   1                    0.24788   0.23568   0.23370   0.19770   0.18673
 RFO step:  Lambda0=3.903362554D-05 Lambda=-8.08575710D-05.
 Linear search not attempted -- option 19 set.
 Variable       Old X    -DE/DX   Delta X   Delta X   Delta X     New X
                                 (Linear)    (Quad)   (Total)
    R2        2.04658  -0.00015   0.00000  -0.00044  -0.00044   2.04615
    R3        2.62478  -0.00012   0.00000  -0.00362  -0.00362   2.62116
    R4        2.62964  -0.00103   0.00000   0.00162   0.00162   2.63126
    R5        2.05233  -0.00020   0.00000  -0.00071  -0.00071   2.05161
    R6        2.64351   0.00162   0.00000   0.00411   0.00411   2.64761
    R7        2.04570   0.00004   0.00000   0.00021   0.00021   2.04592
    R8        2.04303   0.00012   0.00000   0.00027   0.00027   2.04330
    R9        2.04386   0.00004   0.00000   0.00018   0.00018   2.04404
   R10        2.67052  -0.00008   0.00000  -0.00536  -0.00536   2.66516
   R11        2.07282   0.00020   0.00000   0.00012   0.00012   2.07294
   R12        2.37495   0.00117   0.00000   0.00455   0.00455   2.37950
    A3        2.10748  -0.00214   0.00000  -0.00243  -0.00243   2.10505
    A4        2.11363  -0.00150   0.00000   0.00203   0.00203   2.11566
    A5        2.09455  -0.00020   0.00000  -0.00118  -0.00118   2.09337
    A6        2.10990   0.00427   0.00000   0.00054   0.00054   2.11044
    A7        2.10914  -0.00043   0.00000  -0.00264  -0.00264   2.10650
    A8        2.06826  -0.00020   0.00000  -0.00117  -0.00117   2.06709
    A9        2.08861  -0.00037   0.00000  -0.00368  -0.00368   2.08493
   A10        2.07651   0.00461   0.00000   0.00028   0.00028   2.07679
   A11        2.01821  -0.00038   0.00000   0.00038   0.00038   2.01859
   A12        2.23526   0.00264   0.00000   0.00084   0.00084   2.23610
    D4        2.95490   0.00091   0.00000   0.01120   0.01120   2.96611
    D5       -0.35315   0.00027   0.00000   0.01943   0.01943  -0.33373
    D6        2.94507  -0.00002   0.00000  -0.00882  -0.00882   2.93625
    D7       -0.11294   0.00026   0.00000  -0.01245  -0.01245  -0.12538
    D8        2.66361   0.00021   0.00000  -0.00787  -0.00787   2.65574
    D9       -3.08619   0.00037   0.00000   0.01369   0.01369  -3.07250
   D10        2.69103  -0.00015   0.00000  -0.00745  -0.00745   2.68358
   D11       -2.49515   0.00143   0.00000   0.00231   0.00231  -2.49284
   D12        2.99209   0.00106   0.00000  -0.00057  -0.00057   2.99152
         Item               Value     Threshold  Converged?
 Maximum Force            0.004614     0.000450     NO 
 RMS     Force            0.001454     0.000300     NO 
 Maximum Displacement     0.019426     0.001800     NO 
 RMS     Displacement     0.006227     0.001200     NO 
 Predicted change in Energy=-2.095610D-05
 GradGradGradGradGradGradGradGradGradGradGradGradGradGradGradGradGradGrad

 ---------------------------------------------------------------------------------------------------
                            Z-MATRIX (ANGSTROMS AND DEGREES)
   CD    Cent   Atom    N1       Length/X        N2       Alpha/Y        N3        Beta/Z          J
 ---------------------------------------------------------------------------------------------------
      1      1  H 
      2      2  C        1   1.082774(     1)
      3      3  C        2   1.387056(     2)      1  120.611(    12)
      4      4  C        2   1.392405(     3)      1  121.219(    13)      3  169.945(    22)      0
      5      5  H        3   1.085667(     4)      2  119.941(    14)      1  -19.121(    23)      0
      6      6  C        3   1.401055(     5)      2  120.919(    15)      5  168.235(    24)      0
      7      7  H        4   1.082652(     6)      2  120.694(    16)      1   -7.184(    25)      0
      8      8  H        4   1.081268(     7)      2  118.436(    17)      7  152.162(    26)      0
      9      9  H        6   1.081659(     8)      3  119.458(    18)      2 -176.041(    27)      0
     10     10  C        6   1.410342(     9)      3  118.991(    19)      9  153.758(    28)      0
     11     11  H       10   1.096951(    10)      6  115.657(    20)      3 -142.829(    29)      0
     12     12  O       10   1.259177(    11)      6  128.119(    21)     11  171.402(    30)      0
 ---------------------------------------------------------------------------------------------------
                         Z-Matrix orientation:                         
 ---------------------------------------------------------------------
 Center     Atomic      Atomic             Coordinates (Angstroms)
 Number     Number       Type             X           Y           Z
 ---------------------------------------------------------------------
      1          1           0        0.000000    0.000000    0.000000
      2          6           0        0.000000    0.000000    1.082774
      3          6           0        1.193767    0.000000    1.789063
      4          6           0       -1.172492    0.207896    1.804462
      5          1           0        2.112735   -0.308166    1.299976
      6          6           0        1.288114    0.617006    3.043399
      7          1           0       -2.088911    0.488625    1.300972
      8          1           0       -1.303925   -0.322965    2.737227
      9          1           0        2.245629    0.659233    3.544765
     10          6           0        0.357296    1.620564    3.383273
     11          1           0        0.755260    2.459216    3.967730
     12          8           0       -0.828426    1.749818    2.979684
 ---------------------------------------------------------------------
                    Distance matrix (angstroms):
                    1          2          3          4          5
     1  H    0.000000
     2  C    1.082774   0.000000
     3  C    2.150773   1.387056   0.000000
     4  C    2.161953   1.392405   2.375424   0.000000
     5  H    2.499710   2.146111   1.085667   3.363561   0.000000
     6  C    3.361876   2.425692   1.401055   2.785124   2.139034
     7  H    2.508951   2.156366   3.354544   1.082652   4.276530
     8  H    3.049088   2.131136   2.691057   1.081268   3.706680
     9  H    4.247681   3.396886   2.150231   3.862112   2.447979
    10  C    3.768345   2.836580   2.422276   2.613145   3.337917
    11  H    4.728746   3.865376   3.314608   3.669386   4.076524
    12  O    3.553403   2.710428   2.927236   1.969023   3.963224
                    6          7          8          9         10
     6  C    0.000000
     7  H    3.802214   0.000000
     8  H    2.774157   1.826941   0.000000
     9  H    1.081659   4.883846   3.770432   0.000000
    10  C    1.410342   3.406052   2.637108   2.125097   0.000000
    11  H    2.128864   4.368539   3.673542   2.374876   1.096951
    12  O    2.401471   2.448980   2.140401   3.310363   1.259177
                   11         12
    11  H    0.000000
    12  O    1.996883   0.000000
 Symmetry turned off by external request.
 Stoichiometry    C5H6O
 Framework group  C1[X(C5H6O)]
 Deg. of freedom    30
 Full point group                 C1      NOp   1
 Rotational constants (GHZ):           5.5356535           4.6756269           2.7043370
 Standard basis: def2TZVP (5D, 7F)
 The following finite field(s) will be applied:
 An electric field of             -0.0012  0.0002  0.0022
   222 basis functions,   354 primitive gaussians,   252 cartesian basis functions
    22 alpha electrons       22 beta electrons
       nuclear repulsion energy       217.8540749778 Hartrees.
 NAtoms=   12 NActive=   12 NUniq=   12 SFac= 1.00D+00 NAtFMM=   60 NAOKFM=F Big=F
 Integral buffers will be    131072 words long.
 Raffenetti 2 integral format.
 Two-electron integral symmetry is turned off.
 One-electron integrals computed using PRISM.
   1 Symmetry operations used in ECPInt.
 ECPInt:  NShTT=    4095 NPrTT=   12396 LenC2=    4075 LenP2D=   10363.
 LDataN:  DoStor=T MaxTD1= 6 Len=  172
 NBasis=   222 RedAO= T EigKep=  1.17D-04  NBF=   222
 NBsUse=   222 1.00D-06 EigRej= -1.00D+00 NBFU=   222
 The nuclear repulsion energy is now       218.2804537398 hartrees.
 Initial guess from the checkpoint file:  "checkpoint.chk"
 B after Tr=    -0.008247    0.027467   -0.002022
         Rot=    0.999970   -0.006293   -0.001497   -0.004315 Ang=  -0.89 deg.
 Keep R1 ints in memory in canonical form, NReq=319363861.
 Requested convergence on RMS density matrix=1.00D-08 within 128 cycles.
 Requested convergence on MAX density matrix=1.00D-06.
 Requested convergence on             energy=1.00D-06.
 No special actions if energy rises.
 SCF Done:  E(RB3LYP) =  -269.392781301     A.U. after   10 cycles
            NFock= 10  Conv=0.67D-08     -V/T= 2.0050
   1 Symmetry operations used in ECPInt.
 ECPInt:  NShTT=    4095 NPrTT=   12396 LenC2=    4075 LenP2D=   10363.
 LDataN:  DoStor=T MaxTD1= 7 Len=  274
 Calling FoFJK, ICntrl=      2127 FMM=F ISym2X=0 I1Cent= 0 IOpClX= 0 NMat=1 NMatS=1 NMatT=0.
 -------------------------------------------------------------------
 Center     Atomic                   Forces (Hartrees/Bohr)
 Number     Number              X              Y              Z
 -------------------------------------------------------------------
      1        1          -0.000240308    0.000293014   -0.000000412
      2        6           0.000229342   -0.000377550   -0.000003722
      3        6           0.000016794    0.000099667   -0.000001517
      4        6          -0.000011401   -0.000019136    0.000004830
      5        1           0.000000184   -0.000004549    0.000000317
      6        6           0.000009997   -0.000010375    0.000002142
      7        1           0.000000258    0.000004566   -0.000000704
      8        1          -0.000000419   -0.000005651   -0.000004012
      9        1           0.000001617    0.000000751   -0.000000712
     10        6           0.000001425    0.000013481    0.000016094
     11        1           0.000000852    0.000000149    0.000003071
     12        8          -0.000008341    0.000005632   -0.000015375
 -------------------------------------------------------------------
 Cartesian Forces:  Max     0.000377550 RMS     0.000098685
 -----------------------------------------------------------------------------------------------
                       Internal Coordinate Forces (Hartree/Bohr or radian)
  Cent   Atom   N1       Length/X         N2         Alpha/Y        N3         Beta/Z          J
 -----------------------------------------------------------------------------------------------
      1  H 
      2  C        1   0.000000(     1)
      3  C        2   0.000021(     2)      1  -0.000009(    12)
      4  C        2   0.000007(     3)      1  -0.000010(    13)      3   0.000042(    22)     0
      5  H        3   0.000001(     4)      2  -0.000001(    14)      1  -0.000042(    23)     0
      6  C        3   0.000009(     5)      2   0.000002(    15)      5  -0.000034(    24)     0
      7  H        4   0.000001(     6)      2  -0.000001(    16)      1  -0.000019(    25)     0
      8  H        4  -0.000001(     7)      2  -0.000005(    17)      7  -0.000012(    26)     0
      9  H        6   0.000001(     8)      3  -0.000002(    18)      2  -0.000040(    27)     0
     10  C        6   0.000019(     9)      3  -0.000005(    19)      9  -0.000042(    28)     0
     11  H       10   0.000002(    10)      6  -0.000001(    20)      3  -0.000027(    29)     0
     12  O       10   0.000013(    11)      6  -0.000007(    21)     11  -0.000023(    30)     0
 -----------------------------------------------------------------------------------------------
 Internal  Forces:  Max     0.000042370 RMS     0.000019433

 GradGradGradGradGradGradGradGradGradGradGradGradGradGradGradGradGradGrad
 Berny optimization.
 Search for a saddle point.
 Step number   2 out of a maximum of   40
 All quantities printed in internal units (Hartrees-Bohrs-Radians)
 Swapping is turned off.
 Update second derivatives using D2CorN and points    1    2
 ITU=  0  0
     Eigenvalues ---   -0.79243   0.01693   0.02759   0.04025   0.04361
     Eigenvalues ---    0.06276   0.09111   0.11000   0.12803   0.15322
     Eigenvalues ---    0.18973   0.20131   0.23877   0.28181   0.29503
     Eigenvalues ---    0.32198   0.34365   0.35045   0.35323   0.35533
     Eigenvalues ---    0.36421   0.39105   0.42197   0.45248   0.46693
     Eigenvalues ---    0.55646   0.58744   0.72120   1.06554   2.93413
 Eigenvectors required to have negative eigenvalues:
                          A10       A6        D8        R4        R12
   1                    0.46271   0.39719   0.28730  -0.28434  -0.25770
                          D4        R10       A12       D7        A3
   1                    0.24785   0.23562   0.23373   0.19769  -0.18674
 RFO step:  Lambda0=4.671368847D-11 Lambda=-1.68887150D-08.
 Linear search not attempted -- option 19 set.
 Variable       Old X    -DE/DX   Delta X   Delta X   Delta X     New X
                                 (Linear)    (Quad)   (Total)
    R2        2.04615   0.00000   0.00000  -0.00000  -0.00000   2.04614
    R3        2.62116   0.00002   0.00000   0.00002   0.00002   2.62118
    R4        2.63126   0.00001   0.00000   0.00000   0.00000   2.63127
    R5        2.05161   0.00000   0.00000   0.00000   0.00000   2.05161
    R6        2.64761   0.00001   0.00000   0.00002   0.00002   2.64763
    R7        2.04592   0.00000   0.00000   0.00000   0.00000   2.04592
    R8        2.04330  -0.00000   0.00000   0.00000   0.00000   2.04330
    R9        2.04404   0.00000   0.00000   0.00000   0.00000   2.04404
   R10        2.66516   0.00002   0.00000   0.00005   0.00005   2.66521
   R11        2.07294   0.00000   0.00000   0.00000   0.00000   2.07294
   R12        2.37950   0.00001   0.00000   0.00003   0.00003   2.37953
    A3        2.10505  -0.00001   0.00000   0.00007   0.00007   2.10513
    A4        2.11566  -0.00001   0.00000  -0.00003  -0.00003   2.11563
    A5        2.09337  -0.00000   0.00000   0.00002   0.00002   2.09338
    A6        2.11044   0.00000   0.00000  -0.00003  -0.00003   2.11041
    A7        2.10650  -0.00000   0.00000  -0.00001  -0.00001   2.10649
    A8        2.06709  -0.00001   0.00000   0.00002   0.00002   2.06711
    A9        2.08493  -0.00000   0.00000   0.00000   0.00000   2.08493
   A10        2.07679  -0.00001   0.00000  -0.00001  -0.00001   2.07678
   A11        2.01859  -0.00000   0.00000   0.00001   0.00001   2.01860
   A12        2.23610  -0.00001   0.00000  -0.00003  -0.00003   2.23607
    D4        2.96611   0.00004   0.00000   0.00045   0.00045   2.96656
    D5       -0.33373  -0.00004   0.00000   0.00022   0.00022  -0.33351
    D6        2.93625  -0.00003   0.00000   0.00009   0.00009   2.93634
    D7       -0.12538  -0.00002   0.00000  -0.00041  -0.00041  -0.12579
    D8        2.65574  -0.00001   0.00000   0.00010   0.00010   2.65583
    D9       -3.07250  -0.00004   0.00000   0.00000   0.00000  -3.07250
   D10        2.68358  -0.00004   0.00000   0.00001   0.00001   2.68359
   D11       -2.49284  -0.00003   0.00000  -0.00006  -0.00006  -2.49290
   D12        2.99152  -0.00002   0.00000  -0.00001  -0.00001   2.99151
         Item               Value     Threshold  Converged?
 Maximum Force            0.000042     0.000450     YES
 RMS     Force            0.000019     0.000300     YES
 Maximum Displacement     0.000453     0.001800     YES
 RMS     Displacement     0.000123     0.001200     YES
 Predicted change in Energy=-8.421001D-09
 Optimization completed.
    -- Stationary point found.
                       ----------------------------
                       !   Optimized Parameters   !
                       ! (Angstroms and Degrees)  !
 ----------------------                            ----------------------
 !      Name          Value   Derivative information (Atomic Units)     !
 ------------------------------------------------------------------------
 !       R2          1.0828   -DE/DX =    0.0                           !
 !       R3          1.3871   -DE/DX =    0.0                           !
 !       R4          1.3924   -DE/DX =    0.0                           !
 !       R5          1.0857   -DE/DX =    0.0                           !
 !       R6          1.4011   -DE/DX =    0.0                           !
 !       R7          1.0827   -DE/DX =    0.0                           !
 !       R8          1.0813   -DE/DX =    0.0                           !
 !       R9          1.0817   -DE/DX =    0.0                           !
 !       R10         1.4103   -DE/DX =    0.0                           !
 !       R11         1.097    -DE/DX =    0.0                           !
 !       R12         1.2592   -DE/DX =    0.0                           !
 !       A3        120.6106   -DE/DX =    0.0                           !
 !       A4        121.2185   -DE/DX =    0.0                           !
 !       A5        119.941    -DE/DX =    0.0                           !
 !       A6        120.9194   -DE/DX =    0.0                           !
 !       A7        120.6936   -DE/DX =    0.0                           !
 !       A8        118.4356   -DE/DX =    0.0                           !
 !       A9        119.4576   -DE/DX =    0.0                           !
 !       A10       118.9911   -DE/DX =    0.0                           !
 !       A11       115.6565   -DE/DX =    0.0                           !
 !       A12       128.1188   -DE/DX =    0.0                           !
 !       D4        169.9453   -DE/DX =    0.0                           !
 !       D5        -19.1211   -DE/DX =    0.0                           !
 !       D6        168.2348   -DE/DX =    0.0                           !
 !       D7         -7.1838   -DE/DX =    0.0                           !
 !       D8        152.1625   -DE/DX =    0.0                           !
 !       D9       -176.0414   -DE/DX =    0.0                           !
 !       D10       153.7578   -DE/DX =    0.0                           !
 !       D11      -142.8294   -DE/DX =    0.0                           !
 !       D12       171.4016   -DE/DX =    0.0                           !
 ------------------------------------------------------------------------
 GradGradGradGradGradGradGradGradGradGradGradGradGradGradGradGradGradGrad

 ---------------------------------------------------------------------------------------------------
                            Z-MATRIX (ANGSTROMS AND DEGREES)
   CD    Cent   Atom    N1       Length/X        N2       Alpha/Y        N3        Beta/Z          J
 ---------------------------------------------------------------------------------------------------
      1      1  H 
      2      2  C        1   1.082774(     1)
      3      3  C        2   1.387056(     2)      1  120.611(    12)
      4      4  C        2   1.392405(     3)      1  121.219(    13)      3  169.945(    22)      0
      5      5  H        3   1.085667(     4)      2  119.941(    14)      1  -19.121(    23)      0
      6      6  C        3   1.401055(     5)      2  120.919(    15)      5  168.235(    24)      0
      7      7  H        4   1.082652(     6)      2  120.694(    16)      1   -7.184(    25)      0
      8      8  H        4   1.081268(     7)      2  118.436(    17)      7  152.162(    26)      0
      9      9  H        6   1.081659(     8)      3  119.458(    18)      2 -176.041(    27)      0
     10     10  C        6   1.410342(     9)      3  118.991(    19)      9  153.758(    28)      0
     11     11  H       10   1.096951(    10)      6  115.657(    20)      3 -142.829(    29)      0
     12     12  O       10   1.259177(    11)      6  128.119(    21)     11  171.402(    30)      0
 ---------------------------------------------------------------------------------------------------
                         Z-Matrix orientation:                         
 ---------------------------------------------------------------------
 Center     Atomic      Atomic             Coordinates (Angstroms)
 Number     Number       Type             X           Y           Z
 ---------------------------------------------------------------------
      1          1           0        0.000000    0.000000    0.000000
      2          6           0        0.000000    0.000000    1.082774
      3          6           0        1.193767    0.000000    1.789063
      4          6           0       -1.172492    0.207896    1.804462
      5          1           0        2.112735   -0.308166    1.299976
      6          6           0        1.288114    0.617006    3.043399
      7          1           0       -2.088911    0.488625    1.300972
      8          1           0       -1.303925   -0.322965    2.737227
      9          1           0        2.245629    0.659233    3.544765
     10          6           0        0.357296    1.620564    3.383273
     11          1           0        0.755260    2.459216    3.967730
     12          8           0       -0.828426    1.749818    2.979684
 ---------------------------------------------------------------------
                    Distance matrix (angstroms):
                    1          2          3          4          5
     1  H    0.000000
     2  C    1.082774   0.000000
     3  C    2.150773   1.387056   0.000000
     4  C    2.161953   1.392405   2.375424   0.000000
     5  H    2.499710   2.146111   1.085667   3.363561   0.000000
     6  C    3.361876   2.425692   1.401055   2.785124   2.139034
     7  H    2.508951   2.156366   3.354544   1.082652   4.276530
     8  H    3.049088   2.131136   2.691057   1.081268   3.706680
     9  H    4.247681   3.396886   2.150231   3.862112   2.447979
    10  C    3.768345   2.836580   2.422276   2.613145   3.337917
    11  H    4.728746   3.865376   3.314608   3.669386   4.076524
    12  O    3.553403   2.710428   2.927236   1.969023   3.963224
                    6          7          8          9         10
     6  C    0.000000
     7  H    3.802214   0.000000
     8  H    2.774157   1.826941   0.000000
     9  H    1.081659   4.883846   3.770432   0.000000
    10  C    1.410342   3.406052   2.637108   2.125097   0.000000
    11  H    2.128864   4.368539   3.673542   2.374876   1.096951
    12  O    2.401471   2.448980   2.140401   3.310363   1.259177
                   11         12
    11  H    0.000000
    12  O    1.996883   0.000000
 Symmetry turned off by external request.
 Stoichiometry    C5H6O
 Framework group  C1[X(C5H6O)]
 Deg. of freedom    30
 Full point group                 C1      NOp   1
 Rotational constants (GHZ):           5.5356535           4.6756269           2.7043370

 **********************************************************************

            Population analysis using the SCF density.

 **********************************************************************

 Alpha  occ. eigenvalues --  -19.15229 -10.26192 -10.23060 -10.20490 -10.18094
 Alpha  occ. eigenvalues --  -10.17618  -1.05629  -0.83741  -0.76636  -0.67662
 Alpha  occ. eigenvalues --   -0.61694  -0.53629  -0.51846  -0.47994  -0.46883
 Alpha  occ. eigenvalues --   -0.45190  -0.40571  -0.39144  -0.38472  -0.33540
 Alpha  occ. eigenvalues --   -0.29890  -0.22452
 Alpha virt. eigenvalues --   -0.07790  -0.00951   0.03894   0.04611   0.06422
 Alpha virt. eigenvalues --    0.07022   0.08680   0.10589   0.11600   0.14810
 Alpha virt. eigenvalues --    0.17067   0.18824   0.19472   0.20402   0.21505
 Alpha virt. eigenvalues --    0.21653   0.23962   0.26690   0.27092   0.28290
 Alpha virt. eigenvalues --    0.29493   0.32592   0.32889   0.35285   0.36972
 Alpha virt. eigenvalues --    0.39187   0.39556   0.41319   0.41795   0.42849
 Alpha virt. eigenvalues --    0.43469   0.44212   0.44834   0.47145   0.48861
 Alpha virt. eigenvalues --    0.51692   0.52952   0.53860   0.56142   0.57503
 Alpha virt. eigenvalues --    0.61243   0.64949   0.67772   0.68664   0.74592
 Alpha virt. eigenvalues --    0.79152   0.81446   0.86098   0.86220   0.88798
 Alpha virt. eigenvalues --    0.92088   0.93023   0.95331   0.96083   0.96992
 Alpha virt. eigenvalues --    1.00184   1.02932   1.06210   1.09843   1.11228
 Alpha virt. eigenvalues --    1.13967   1.16390   1.18604   1.22549   1.22746
 Alpha virt. eigenvalues --    1.28020   1.30355   1.33608   1.38228   1.38923
 Alpha virt. eigenvalues --    1.42086   1.43019   1.45468   1.46991   1.50517
 Alpha virt. eigenvalues --    1.52564   1.56778   1.59241   1.62388   1.63991
 Alpha virt. eigenvalues --    1.66009   1.67760   1.72868   1.77026   1.77685
 Alpha virt. eigenvalues --    1.80297   1.81984   1.84710   1.87518   1.90869
 Alpha virt. eigenvalues --    1.93638   1.96243   2.04238   2.06124   2.09659
 Alpha virt. eigenvalues --    2.14123   2.14778   2.18649   2.19874   2.25241
 Alpha virt. eigenvalues --    2.27254   2.31409   2.36876   2.39984   2.43456
 Alpha virt. eigenvalues --    2.48805   2.51031   2.52065   2.53561   2.55241
 Alpha virt. eigenvalues --    2.58149   2.60707   2.62185   2.64812   2.67278
 Alpha virt. eigenvalues --    2.69410   2.70043   2.76147   2.77305   2.78836
 Alpha virt. eigenvalues --    2.81077   2.82931   2.83626   2.85624   2.88645
 Alpha virt. eigenvalues --    2.90778   2.93970   2.95600   2.97187   3.00946
 Alpha virt. eigenvalues --    3.01977   3.03681   3.05829   3.11170   3.12692
 Alpha virt. eigenvalues --    3.14164   3.16375   3.18744   3.22151   3.22819
 Alpha virt. eigenvalues --    3.23900   3.26878   3.28050   3.34396   3.35009
 Alpha virt. eigenvalues --    3.38430   3.40839   3.42743   3.45049   3.47424
 Alpha virt. eigenvalues --    3.48731   3.51578   3.57375   3.62401   3.62784
 Alpha virt. eigenvalues --    3.67642   3.84399   3.89342   3.91115   3.93169
 Alpha virt. eigenvalues --    3.96622   4.01390   4.02674   4.07467   4.10644
 Alpha virt. eigenvalues --    4.15355   4.17022   4.24985   4.29991   4.31714
 Alpha virt. eigenvalues --    4.38050   4.43174   4.46906   4.53476   4.63827
 Alpha virt. eigenvalues --    4.66084   4.71504   4.80311   4.84917   4.85799
 Alpha virt. eigenvalues --    5.04550   5.13956   5.24038   5.27900   5.50848
 Alpha virt. eigenvalues --    5.60625   5.98206   6.20489   6.32907   6.49513
 Alpha virt. eigenvalues --    6.71646   6.77446   6.96413   7.07278  22.04989
 Alpha virt. eigenvalues --   22.33108  22.49748  22.69238  22.86573  43.79774
          Condensed to atoms (all electrons):
               1          2          3          4          5          6
     1  H    0.545861   0.412906  -0.048036  -0.034482  -0.004284   0.006506
     2  C    0.412906   4.986927   0.493579   0.513917  -0.037291  -0.035530
     3  C   -0.048036   0.493579   4.889044  -0.089872   0.413557   0.465810
     4  C   -0.034482   0.513917  -0.089872   4.829992   0.009959  -0.005723
     5  H   -0.004284  -0.037291   0.413557   0.009959   0.545393  -0.047308
     6  C    0.006506  -0.035530   0.465810  -0.005723  -0.047308   5.262319
     7  H   -0.006499  -0.036959   0.009889   0.397453  -0.000251  -0.000536
     8  H    0.006827  -0.030538  -0.035753   0.426199   0.000159   0.034553
     9  H   -0.000196   0.008968  -0.050296  -0.000097  -0.007381   0.404949
    10  C   -0.002321  -0.046264  -0.025365  -0.046756   0.001803   0.416108
    11  H   -0.000004  -0.006178   0.004834   0.004334  -0.000796  -0.110809
    12  O    0.000580  -0.027709  -0.005817   0.079516  -0.000915  -0.128641
               7          8          9         10         11         12
     1  H   -0.006499   0.006827  -0.000196  -0.002321  -0.000004   0.000580
     2  C   -0.036959  -0.030538   0.008968  -0.046264  -0.006178  -0.027709
     3  C    0.009889  -0.035753  -0.050296  -0.025365   0.004834  -0.005817
     4  C    0.397453   0.426199  -0.000097  -0.046756   0.004334   0.079516
     5  H   -0.000251   0.000159  -0.007381   0.001803  -0.000796  -0.000915
     6  C   -0.000536   0.034553   0.404949   0.416108  -0.110809  -0.128641
     7  H    0.535880  -0.033562   0.000019   0.001386   0.000004  -0.001057
     8  H   -0.033562   0.580041  -0.000011  -0.012441  -0.001871  -0.054761
     9  H    0.000019  -0.000011   0.572013  -0.034678  -0.000475   0.005838
    10  C    0.001386  -0.012441  -0.034678   4.663302   0.421446   0.506709
    11  H    0.000004  -0.001871  -0.000475   0.421446   0.619726  -0.035584
    12  O   -0.001057  -0.054761   0.005838   0.506709  -0.035584   7.967991
 Mulliken charges:
               1
     1  H    0.123143
     2  C   -0.195829
     3  C   -0.021573
     4  C   -0.084439
     5  H    0.127355
     6  C   -0.261698
     7  H    0.134235
     8  H    0.121159
     9  H    0.101349
    10  C    0.157073
    11  H    0.105373
    12  O   -0.306148
 Sum of Mulliken charges =  -0.00000
 Mulliken charges with hydrogens summed into heavy atoms:
               1
     2  C   -0.072686
     3  C    0.105782
     4  C    0.170955
     6  C   -0.160349
    10  C    0.262446
    12  O   -0.306148
 Electronic spatial extent (au):  <R**2>=           1435.7658
 Charge=             -0.0000 electrons
 Dipole moment (field-independent basis, Debye):
    X=              1.0169    Y=             -0.6252    Z=             -0.8244  Tot=              1.4507
 Quadrupole moment (field-independent basis, Debye-Ang):
   XX=            -33.1262   YY=            -39.2271   ZZ=            -37.8727
   XY=              2.7011   XZ=              4.0806   YZ=             -0.8264
 Traceless Quadrupole moment (field-independent basis, Debye-Ang):
   XX=              3.6158   YY=             -2.4851   ZZ=             -1.1307
   XY=              2.7011   XZ=              4.0806   YZ=             -0.8264
 Octapole moment (field-independent basis, Debye-Ang**2):
  XXX=            -14.4183  YYY=            -75.6220  ZZZ=           -255.3083  XYY=              0.8463
  XXY=            -26.9148  XXZ=            -80.2649  XZZ=              9.4265  YZZ=            -21.9515
  YYZ=            -87.6197  XYZ=             12.0660
 Hexadecapole moment (field-independent basis, Debye-Ang**3):
 XXXX=           -252.8720 YYYY=           -270.6422 ZZZZ=          -1398.5207 XXXY=             -1.6602
 XXXZ=            -46.4398 YYYX=             16.3461 YYYZ=           -230.4183 ZZZX=             -5.1783
 ZZZY=           -203.6246 XXYY=            -97.5447 XXZZ=           -271.4810 YYZZ=           -272.6865
 XXYZ=            -83.6387 YYXZ=              3.3981 ZZXY=             44.9161
 N-N= 2.182804537398D+02 E-N=-1.064019298857D+03  KE= 2.680587853739D+02
 1\1\GINC-BHC0106\FTS\RB3LYP\def2TZVP\C5H6O1\DHANAWAY\18-Mar-2022\1\\# 
 Opt=(TS, CalcFC, noeigentest, Z-matrix, MaxStep=10) Field=read NoSymm 
 B3LYP/Def2TZVP\\ts_zmat_initalOpt\\0,1\H\C,1,R2\C,2,R3,1,A3\C,2,R4,1,A
 4,3,D4,0\H,3,R5,2,A5,1,D5,0\C,3,R6,2,A6,5,D6,0\H,4,R7,2,A7,1,D7,0\H,4,
 R8,2,A8,7,D8,0\H,6,R9,3,A9,2,D9,0\C,6,R10,3,A10,9,D10,0\H,10,R11,6,A11
 ,3,D11,0\O,10,R12,6,A12,11,D12,0\\R2=1.08277389\R3=1.38705576\R4=1.392
 40504\R5=1.08566727\R6=1.40105541\R7=1.08265223\R8=1.08126754\R9=1.081
 65895\R10=1.4103424\R11=1.09695147\R12=1.25917743\A3=120.61055185\A4=1
 21.21851574\A5=119.94098677\A6=120.91941316\A7=120.69362653\A8=118.435
 64631\A9=119.4576257\A10=118.99105662\A11=115.65653073\A12=128.1188316
 \D4=169.94530082\D5=-19.1211037\D6=168.23479997\D7=-7.18377344\D8=152.
 16247033\D9=-176.04135223\D10=153.75777748\D11=-142.82941362\D12=171.4
 0158142\\Version=ES64L-G16RevA.03\HF=-269.3927813\RMSD=6.686e-09\RMSF=
 9.869e-05\Dipole=0.4000776,-0.245955,-0.3243359\Quadrupole=2.6882363,-
 1.8476242,-0.8406121,2.0081749,3.0338577,-0.614387\PG=C01 [X(C5H6O1)]\
 \@


 THOSE WHO TRY TO PASS CHEMISTRY OFF AS A NEW SCIENCE
 SHOW HOW LITTLE KNOWLEDGE THEY HAVE OF THE CHARACTER
 AND LITERATURE OF THE ANCIENTS.
   -- NICOLAS LEFEVRE
 "COURS DE CHYMIE" J.-N.LELOUP, PARIS, 1751
 Job cpu time:       0 days  0 hours 40 minutes 12.7 seconds.
 Elapsed time:       0 days  0 hours  3 minutes 43.3 seconds.
 File lengths (MBytes):  RWF=     54 Int=      0 D2E=      0 Chk=     32 Scr=      1
 Normal termination of Gaussian 16 at Fri Mar 18 11:06:17 2022.
