 Entering Gaussian System, Link 0=g16
 Input=ts_initalOpt_zmat_sp.gjf
 Output=ts_initalOpt_zmat_sp.out
 Initial command:
 /software/gaussian/g16-a03/l1.exe "/local_scratch/11171288/Gau-15566.inp" -scrdir="/local_scratch/11171288/"
 Entering Link 1 = /software/gaussian/g16-a03/l1.exe PID=     15567.
  
 Copyright (c) 1988,1990,1992,1993,1995,1998,2003,2009,2016,
            Gaussian, Inc.  All Rights Reserved.
  
 This is part of the Gaussian(R) 16 program.  It is based on
 the Gaussian(R) 09 system (copyright 2009, Gaussian, Inc.),
 the Gaussian(R) 03 system (copyright 2003, Gaussian, Inc.),
 the Gaussian(R) 98 system (copyright 1998, Gaussian, Inc.),
 the Gaussian(R) 94 system (copyright 1995, Gaussian, Inc.),
 the Gaussian 92(TM) system (copyright 1992, Gaussian, Inc.),
 the Gaussian 90(TM) system (copyright 1990, Gaussian, Inc.),
 the Gaussian 88(TM) system (copyright 1988, Gaussian, Inc.),
 the Gaussian 86(TM) system (copyright 1986, Carnegie Mellon
 University), and the Gaussian 82(TM) system (copyright 1983,
 Carnegie Mellon University). Gaussian is a federally registered
 trademark of Gaussian, Inc.
  
 This software contains proprietary and confidential information,
 including trade secrets, belonging to Gaussian, Inc.
  
 This software is provided under written license and may be
 used, copied, transmitted, or stored only in accord with that
 written license.
  
 The following legend is applicable only to US Government
 contracts under FAR:
  
                    RESTRICTED RIGHTS LEGEND
  
 Use, reproduction and disclosure by the US Government is
 subject to restrictions as set forth in subparagraphs (a)
 and (c) of the Commercial Computer Software - Restricted
 Rights clause in FAR 52.227-19.
  
 Gaussian, Inc.
 340 Quinnipiac St., Bldg. 40, Wallingford CT 06492
  
  
 ---------------------------------------------------------------
 Warning -- This program may not be used in any manner that
 competes with the business of Gaussian, Inc. or will provide
 assistance to any competitor of Gaussian, Inc.  The licensee
 of this program is prohibited from giving any competitor of
 Gaussian, Inc. access to this program.  By using this program,
 the user acknowledges that Gaussian, Inc. is engaged in the
 business of creating and licensing software in the field of
 computational chemistry and represents and warrants to the
 licensee that it is not a competitor of Gaussian, Inc. and that
 it will not use this program in any manner prohibited above.
 ---------------------------------------------------------------
  

 Cite this work as:
 Gaussian 16, Revision A.03,
 M. J. Frisch, G. W. Trucks, H. B. Schlegel, G. E. Scuseria, 
 M. A. Robb, J. R. Cheeseman, G. Scalmani, V. Barone, 
 G. A. Petersson, H. Nakatsuji, X. Li, M. Caricato, A. V. Marenich, 
 J. Bloino, B. G. Janesko, R. Gomperts, B. Mennucci, H. P. Hratchian, 
 J. V. Ortiz, A. F. Izmaylov, J. L. Sonnenberg, D. Williams-Young, 
 F. Ding, F. Lipparini, F. Egidi, J. Goings, B. Peng, A. Petrone, 
 T. Henderson, D. Ranasinghe, V. G. Zakrzewski, J. Gao, N. Rega, 
 G. Zheng, W. Liang, M. Hada, M. Ehara, K. Toyota, R. Fukuda, 
 J. Hasegawa, M. Ishida, T. Nakajima, Y. Honda, O. Kitao, H. Nakai, 
 T. Vreven, K. Throssell, J. A. Montgomery, Jr., J. E. Peralta, 
 F. Ogliaro, M. J. Bearpark, J. J. Heyd, E. N. Brothers, K. N. Kudin, 
 V. N. Staroverov, T. A. Keith, R. Kobayashi, J. Normand, 
 K. Raghavachari, A. P. Rendell, J. C. Burant, S. S. Iyengar, 
 J. Tomasi, M. Cossi, J. M. Millam, M. Klene, C. Adamo, R. Cammi, 
 J. W. Ochterski, R. L. Martin, K. Morokuma, O. Farkas, 
 J. B. Foresman, and D. J. Fox, Gaussian, Inc., Wallingford CT, 2016.
 
 ******************************************
 Gaussian 16:  ES64L-G16RevA.03 25-Dec-2016
                10-Jun-2022 
 ******************************************
 %nprocshared=12
 Will use up to   12 processors via shared memory.
 %chk=checkpoint.chk
 %mem=12GB
 --------------------------
 # sp B3LYP/Def2TZVP NoSymm
 --------------------------
 1/38=1,172=1/1;
 2/12=2,15=1,17=6,18=5,40=1/2;
 3/5=44,7=101,11=2,25=1,30=1,74=-5/1,2,3;
 4//1;
 5/5=2,38=5/2;
 6/7=2,8=2,9=2,10=2,28=1/1;
 99/5=1,9=1/99;
 ---------------------------
 ts_initalOpt_zmat_AlignedSp
 ---------------------------
 Symbolic Z-matrix:
 Charge =  0 Multiplicity = 1
 C
 C                    1    R2
 C                    1    R3       2    A3
 H                    1    R4       2    A4       3    D4       0
 O                    3    R5       1    A5       2    D5       0
 C                    2    R6       1    A6       3    D6       0
 H                    2    R7       1    A7       6    D7       0
 C                    6    R8       2    A8       1    D8       0
 H                    6    R9       2    A9       8    D9       0
 C                    8    R10      6    A10      2    D10      0
 N                    8    R11      6    A11      10   D11      0
 H                    10   R12      8    A12      6    D12      0
 C                    10   R13      8    A13      12   D13      0
 C                    11   R14      8    A14      6    D14      0
 H                    11   R15      8    A15      14   D15      0
 H                    13   R16      10   A16      8    D16      0
 H                    14   R17      11   A17      8    D17      0
       Variables:
  R2                    1.4159                   
  R3                    1.37596                  
  R4                    1.08553                  
  R5                    1.17946                  
  R6                    1.36916                  
  R7                    1.08422                  
  R8                    1.41638                  
  R9                    1.08165                  
  R10                   1.41561                  
  R11                   1.36115                  
  R12                   1.08329                  
  R13                   1.44402                  
  R14                   1.39127                  
  R15                   1.00598                  
  R16                   1.07683                  
  R17                   1.07689                  
  A3                  127.71795                  
  A4                  118.21837                  
  A5                  144.62153                  
  A6                  127.53786                  
  A7                  115.00597                  
  A8                  117.95383                  
  A9                  120.36083                  
  A10                 125.33964                  
  A11                 126.86937                  
  A12                 120.20679                  
  A13                 106.66957                  
  A14                 110.16664                  
  A15                 124.18827                  
  A16                 126.47033                  
  A17                 120.52344                  
  D4                 -166.10212                  
  D5                  179.09517                  
  D6                    1.81544                  
  D7                  174.54018                  
  D8                   -0.93794                  
  D9                  171.14784                  
  D10                 -26.65023                  
  D11                 169.32356                  
  D12                 -44.12211                  
  D13                -144.90888                  
  D14                -170.19318                  
  D15                 168.71769                  
  D16                 178.54653                  
  D17                 178.97264                  
 
                          Input orientation:                          
 ---------------------------------------------------------------------
 Center     Atomic      Atomic             Coordinates (Angstroms)
 Number     Number       Type             X           Y           Z
 ---------------------------------------------------------------------
      1          6           0        0.000000    0.000000    0.000000
      2          6           0        0.000000    0.000000    1.415903
      3          6           0        1.088431    0.000000   -0.841780
      4          1           0       -0.928519    0.229749   -0.513277
      5          8           0        1.431425   -0.010784   -1.970214
      6          6           0        1.085135    0.034394    2.250115
      7          1           0       -0.980606    0.062457    1.874218
      8          6           0        2.373803    0.054749    1.662697
      9          1           0        0.953316    0.188995    3.312509
     10          6           0        2.702325   -0.472760    0.390786
     11          7           0        3.461350    0.744576    2.103268
     12          1           0        2.323623   -1.441533    0.088152
     13          6           0        4.052831   -0.050077    0.103291
     14          6           0        4.477258    0.695659    1.153961
     15          1           0        3.459663    1.349061    2.907380
     16          1           0        4.626471   -0.293533   -0.774905
     17          1           0        5.411445    1.203012    1.325962
 ---------------------------------------------------------------------
                    Distance matrix (angstroms):
                    1          2          3          4          5
     1  C    0.000000
     2  C    1.415903   0.000000
     3  C    1.375964   2.506355   0.000000
     4  H    1.085535   2.153292   2.056402   0.000000
     5  O    2.435332   3.676260   1.179459   2.783857   0.000000
     6  C    2.498344   1.369165   3.092089   3.424807   4.234754
     7  H    2.116172   1.084224   3.414889   2.393916   4.539044
     8  C    2.898707   2.387225   2.815597   3.958639   3.753720
     9  H    3.452137   2.131114   4.160780   4.263755   5.308075
    10  C    2.771061   2.928639   2.085036   3.807083   2.720833
    11  N    4.118140   3.606634   3.854666   5.136371   4.613504
    12  H    2.735875   3.039764   2.113880   3.705581   2.660814
    13  C    4.054457   4.260387   3.111806   5.027158   3.342564
    14  C    4.675618   4.538545   3.993879   5.676195   4.420026
    15  H    4.716152   4.001717   4.636692   5.675376   5.454709
    16  H    4.700093   5.127381   3.550825   5.585713   3.423015
    17  H    5.699925   5.544282   4.983452   6.672720   5.308355
                    6          7          8          9         10
     6  C    0.000000
     7  H    2.099851   0.000000
     8  C    1.416382   3.361080   0.000000
     9  H    1.081646   2.413452   2.181211   0.000000
    10  C    2.515872   4.006371   1.415609   3.468921   0.000000
    11  N    2.484415   4.499858   1.361147   2.839219   2.233969
    12  H    2.895911   4.045979   2.172688   3.864303   1.083293
    13  C    3.663770   5.337073   2.293878   4.468023   1.444016
    14  C    3.625648   5.541480   2.257011   4.163436   2.257881
    15  H    2.792620   4.736957   2.098468   2.791354   3.197786
    16  H    4.668977   6.211594   3.337322   5.516507   2.256833
    17  H    4.575662   6.516116   3.264838   4.984928   3.319954
                   11         12         13         14         15
    11  N    0.000000
    12  H    3.183424   0.000000
    13  C    2.231868   2.219581   0.000000
    14  C    1.391275   3.215849   1.356528   0.000000
    15  H    1.005983   4.126263   3.189413   2.130003   0.000000
    16  H    3.273997   2.714016   1.076829   2.172853   4.197473
    17  H    2.148776   4.249757   2.216075   1.076892   2.516280
                   16         17
    16  H    0.000000
    17  H    2.696196   0.000000
 Symmetry turned off by external request.
 Stoichiometry    C8H7NO
 Framework group  C1[X(C8H7NO)]
 Deg. of freedom    45
 Full point group                 C1      NOp   1
 Rotational constants (GHZ):           2.1586789           1.3713930           0.8800753
 Standard basis: def2TZVP (5D, 7F)
   352 basis functions,   566 primitive gaussians,   402 cartesian basis functions
    35 alpha electrons       35 beta electrons
       nuclear repulsion energy       480.1692800951 Hartrees.
 NAtoms=   17 NActive=   17 NUniq=   17 SFac= 1.00D+00 NAtFMM=   60 NAOKFM=F Big=F
 Integral buffers will be    131072 words long.
 Raffenetti 2 integral format.
 Two-electron integral symmetry is turned off.
 One-electron integrals computed using PRISM.
   1 Symmetry operations used in ECPInt.
 ECPInt:  NShTT=    9591 NPrTT=   29644 LenC2=    9332 LenP2D=   22719.
 LDataN:  DoStor=T MaxTD1= 6 Len=  172
 NBasis=   352 RedAO= T EigKep=  3.58D-05  NBF=   352
 NBsUse=   352 1.00D-06 EigRej= -1.00D+00 NBFU=   352
 ExpMin= 9.52D-02 ExpMax= 2.70D+04 ExpMxC= 9.22D+02 IAcc=3 IRadAn=         5 AccDes= 0.00D+00
 Harris functional with IExCor=  402 and IRadAn=       5 diagonalized for initial guess.
 HarFok:  IExCor=  402 AccDes= 0.00D+00 IRadAn=         5 IDoV= 1 UseB2=F ITyADJ=14
 ICtDFT=  3500011 ScaDFX=  1.000000  1.000000  1.000000  1.000000
 FoFCou: FMM=F IPFlag=           0 FMFlag=      100000 FMFlg1=           0
         NFxFlg=           0 DoJE=T BraDBF=F KetDBF=T FulRan=T
         wScrn=  0.000000 ICntrl=       500 IOpCl=  0 I1Cent=   200000004 NGrid=           0
         NMat0=    1 NMatS0=      1 NMatT0=    0 NMatD0=    1 NMtDS0=    0 NMtDT0=    0
 Symmetry not used in FoFCou.
 Requested convergence on RMS density matrix=1.00D-08 within 128 cycles.
 Requested convergence on MAX density matrix=1.00D-06.
 Requested convergence on             energy=1.00D-06.
 No special actions if energy rises.
 Integral accuracy reduced to 1.0D-05 until final iterations.
 Initial convergence to 1.0D-05 achieved.  Increase integral accuracy.
 SCF Done:  E(RB3LYP) =  -439.135083747     A.U. after   15 cycles
            NFock= 15  Conv=0.74D-08     -V/T= 2.0049

 **********************************************************************

            Population analysis using the SCF density.

 **********************************************************************

 Alpha  occ. eigenvalues --  -19.14303 -14.37915 -10.27785 -10.22925 -10.21405
 Alpha  occ. eigenvalues --  -10.19272 -10.18027 -10.17577 -10.17044 -10.16967
 Alpha  occ. eigenvalues --   -1.07474  -1.00024  -0.83057  -0.79474  -0.75550
 Alpha  occ. eigenvalues --   -0.71101  -0.61853  -0.61368  -0.59807  -0.53842
 Alpha  occ. eigenvalues --   -0.49970  -0.48997  -0.46576  -0.45690  -0.44302
 Alpha  occ. eigenvalues --   -0.43481  -0.41931  -0.40199  -0.39193  -0.38068
 Alpha  occ. eigenvalues --   -0.36778  -0.32321  -0.26700  -0.24716  -0.19268
 Alpha virt. eigenvalues --   -0.05933  -0.02090   0.01907   0.02972   0.05557
 Alpha virt. eigenvalues --    0.06039   0.07350   0.08365   0.09108   0.10872
 Alpha virt. eigenvalues --    0.11328   0.12275   0.12996   0.14630   0.15828
 Alpha virt. eigenvalues --    0.16837   0.18939   0.19443   0.21250   0.21638
 Alpha virt. eigenvalues --    0.22128   0.22834   0.24434   0.25921   0.27022
 Alpha virt. eigenvalues --    0.27469   0.28593   0.29223   0.30786   0.31168
 Alpha virt. eigenvalues --    0.32813   0.33794   0.34566   0.35680   0.36201
 Alpha virt. eigenvalues --    0.37269   0.37519   0.38910   0.40194   0.41552
 Alpha virt. eigenvalues --    0.41877   0.42452   0.43500   0.43971   0.44422
 Alpha virt. eigenvalues --    0.44861   0.45267   0.46818   0.48341   0.48640
 Alpha virt. eigenvalues --    0.50368   0.50965   0.52833   0.53273   0.54692
 Alpha virt. eigenvalues --    0.57202   0.58450   0.60076   0.61521   0.61886
 Alpha virt. eigenvalues --    0.64206   0.64864   0.66353   0.67540   0.68679
 Alpha virt. eigenvalues --    0.70501   0.71038   0.73900   0.74570   0.77343
 Alpha virt. eigenvalues --    0.79675   0.80375   0.81929   0.85272   0.87024
 Alpha virt. eigenvalues --    0.88817   0.89937   0.92127   0.92977   0.94361
 Alpha virt. eigenvalues --    0.97018   0.97488   0.98097   0.99763   1.01663
 Alpha virt. eigenvalues --    1.05121   1.06623   1.08020   1.08055   1.08850
 Alpha virt. eigenvalues --    1.12818   1.14153   1.15599   1.16862   1.20352
 Alpha virt. eigenvalues --    1.21631   1.22909   1.25089   1.27070   1.27960
 Alpha virt. eigenvalues --    1.29128   1.31216   1.32023   1.33757   1.36395
 Alpha virt. eigenvalues --    1.39510   1.39979   1.41906   1.42114   1.44066
 Alpha virt. eigenvalues --    1.45898   1.47759   1.48914   1.49429   1.50278
 Alpha virt. eigenvalues --    1.50843   1.51170   1.54641   1.55342   1.58552
 Alpha virt. eigenvalues --    1.60492   1.60763   1.63439   1.63927   1.65088
 Alpha virt. eigenvalues --    1.65937   1.68470   1.72013   1.74851   1.76464
 Alpha virt. eigenvalues --    1.78958   1.80812   1.81799   1.84040   1.85194
 Alpha virt. eigenvalues --    1.88327   1.91221   1.92893   1.94647   1.98968
 Alpha virt. eigenvalues --    2.00499   2.01154   2.04862   2.04913   2.06113
 Alpha virt. eigenvalues --    2.09131   2.10896   2.13105   2.17415   2.19178
 Alpha virt. eigenvalues --    2.21166   2.22207   2.24380   2.26383   2.27618
 Alpha virt. eigenvalues --    2.31324   2.33460   2.36009   2.37318   2.40937
 Alpha virt. eigenvalues --    2.42307   2.47722   2.49471   2.52028   2.53170
 Alpha virt. eigenvalues --    2.54224   2.55361   2.58035   2.59166   2.59542
 Alpha virt. eigenvalues --    2.61417   2.64158   2.64882   2.65182   2.66896
 Alpha virt. eigenvalues --    2.69740   2.70910   2.72553   2.73536   2.75638
 Alpha virt. eigenvalues --    2.77115   2.77930   2.78319   2.80415   2.83123
 Alpha virt. eigenvalues --    2.84423   2.84808   2.86801   2.87575   2.89863
 Alpha virt. eigenvalues --    2.91590   2.92974   2.93996   2.94756   2.96343
 Alpha virt. eigenvalues --    2.99585   3.00254   3.02879   3.04626   3.05375
 Alpha virt. eigenvalues --    3.06799   3.09595   3.10947   3.11781   3.13056
 Alpha virt. eigenvalues --    3.14215   3.16589   3.17481   3.19482   3.19723
 Alpha virt. eigenvalues --    3.21234   3.22335   3.24186   3.25498   3.26661
 Alpha virt. eigenvalues --    3.27709   3.28969   3.29834   3.31351   3.32140
 Alpha virt. eigenvalues --    3.36675   3.37292   3.40135   3.41046   3.41847
 Alpha virt. eigenvalues --    3.42236   3.45578   3.46352   3.47742   3.49469
 Alpha virt. eigenvalues --    3.49979   3.52034   3.55675   3.58625   3.59757
 Alpha virt. eigenvalues --    3.60717   3.62007   3.65663   3.67212   3.72571
 Alpha virt. eigenvalues --    3.79024   3.79520   3.81528   3.86181   3.89122
 Alpha virt. eigenvalues --    3.90220   3.93461   3.94914   3.97407   4.00708
 Alpha virt. eigenvalues --    4.02421   4.04321   4.09807   4.11936   4.13133
 Alpha virt. eigenvalues --    4.17462   4.18048   4.20810   4.22770   4.24654
 Alpha virt. eigenvalues --    4.27081   4.34834   4.36916   4.38843   4.40917
 Alpha virt. eigenvalues --    4.44304   4.45048   4.52861   4.55500   4.59822
 Alpha virt. eigenvalues --    4.67961   4.68414   4.69917   4.72380   4.75459
 Alpha virt. eigenvalues --    4.79576   4.80910   4.87641   4.93609   4.96275
 Alpha virt. eigenvalues --    4.97983   5.01182   5.03466   5.08999   5.11315
 Alpha virt. eigenvalues --    5.15717   5.17035   5.18526   5.19895   5.27910
 Alpha virt. eigenvalues --    5.30083   5.35407   5.45211   5.55756   5.63535
 Alpha virt. eigenvalues --    5.64790   5.66968   5.87198   5.99071   6.30408
 Alpha virt. eigenvalues --    6.35667   6.43759   6.50147   6.62718   6.81029
 Alpha virt. eigenvalues --    6.95390   7.14014  22.26305  22.39442  22.60696
 Alpha virt. eigenvalues --   22.65213  22.75232  22.76506  23.10693  23.29684
 Alpha virt. eigenvalues --   32.30097  43.92044
          Condensed to atoms (all electrons):
               1          2          3          4          5          6
     1  C    5.247137   0.395697   0.469082   0.397382  -0.075693  -0.034577
     2  C    0.395697   4.854391  -0.016503  -0.053583   0.003928   0.555672
     3  C    0.469082  -0.016503   4.611203  -0.026793   0.665734  -0.035727
     4  H    0.397382  -0.053583  -0.026793   0.564063  -0.000113   0.001071
     5  O   -0.075693   0.003928   0.665734  -0.000113   7.686111   0.002399
     6  C   -0.034577   0.555672  -0.035727   0.001071   0.002399   5.156229
     7  H   -0.046946   0.409536   0.005906  -0.005988  -0.000190  -0.044823
     8  C   -0.043999  -0.071063   0.045958   0.002296   0.001381   0.362917
     9  H    0.007274  -0.031571  -0.000068  -0.000154   0.000004   0.420467
    10  C   -0.052792  -0.021636   0.099300   0.008651  -0.090024  -0.076787
    11  N    0.001873  -0.002821   0.001841  -0.000044   0.000188  -0.054028
    12  H    0.006356  -0.007085  -0.022234   0.000124  -0.004690   0.006750
    13  C   -0.006598   0.004786  -0.002510  -0.000452   0.017698   0.019122
    14  C    0.003176  -0.000304  -0.000449  -0.000018  -0.000687   0.001334
    15  H    0.000091  -0.000543  -0.000282  -0.000019   0.000036   0.002474
    16  H    0.000133  -0.000078  -0.000441  -0.000009   0.002212  -0.000042
    17  H    0.000013   0.000072   0.000017  -0.000000  -0.000004  -0.000666
               7          8          9         10         11         12
     1  C   -0.046946  -0.043999   0.007274  -0.052792   0.001873   0.006356
     2  C    0.409536  -0.071063  -0.031571  -0.021636  -0.002821  -0.007085
     3  C    0.005906   0.045958  -0.000068   0.099300   0.001841  -0.022234
     4  H   -0.005988   0.002296  -0.000154   0.008651  -0.000044   0.000124
     5  O   -0.000190   0.001381   0.000004  -0.090024   0.000188  -0.004690
     6  C   -0.044823   0.362917   0.420467  -0.076787  -0.054028   0.006750
     7  H    0.567919   0.012341  -0.008989  -0.000927  -0.000211  -0.000270
     8  C    0.012341   4.922373  -0.065907   0.424033   0.404980  -0.064827
     9  H   -0.008989  -0.065907   0.560692   0.011284  -0.000086  -0.000113
    10  C   -0.000927   0.424033   0.011284   5.289907  -0.061767   0.454830
    11  N   -0.000211   0.404980  -0.000086  -0.061767   6.338375   0.004415
    12  H   -0.000270  -0.064827  -0.000113   0.454830   0.004415   0.534004
    13  C    0.000096  -0.031350  -0.001354   0.263249  -0.098124  -0.048281
    14  C    0.000010  -0.117124   0.000381  -0.025751   0.364810   0.009666
    15  H   -0.000030  -0.046494   0.002400   0.008051   0.376988  -0.000159
    16  H   -0.000000   0.008717   0.000010  -0.044346   0.004286  -0.003005
    17  H   -0.000001   0.006594  -0.000009   0.004993  -0.034732  -0.000160
              13         14         15         16         17
     1  C   -0.006598   0.003176   0.000091   0.000133   0.000013
     2  C    0.004786  -0.000304  -0.000543  -0.000078   0.000072
     3  C   -0.002510  -0.000449  -0.000282  -0.000441   0.000017
     4  H   -0.000452  -0.000018  -0.000019  -0.000009  -0.000000
     5  O    0.017698  -0.000687   0.000036   0.002212  -0.000004
     6  C    0.019122   0.001334   0.002474  -0.000042  -0.000666
     7  H    0.000096   0.000010  -0.000030  -0.000000  -0.000001
     8  C   -0.031350  -0.117124  -0.046494   0.008717   0.006594
     9  H   -0.001354   0.000381   0.002400   0.000010  -0.000009
    10  C    0.263249  -0.025751   0.008051  -0.044346   0.004993
    11  N   -0.098124   0.364810   0.376988   0.004286  -0.034732
    12  H   -0.048281   0.009666  -0.000159  -0.003005  -0.000160
    13  C    5.072265   0.544937   0.008581   0.435113  -0.023897
    14  C    0.544937   4.937399  -0.040224  -0.047576   0.409880
    15  H    0.008581  -0.040224   0.473564  -0.000099  -0.003266
    16  H    0.435113  -0.047576  -0.000099   0.521407  -0.002079
    17  H   -0.023897   0.409880  -0.003266  -0.002079   0.504145
 Mulliken charges:
               1
     1  C   -0.267610
     2  C   -0.018895
     3  C    0.205966
     4  H    0.113586
     5  O   -0.208293
     6  C   -0.281785
     7  H    0.112566
     8  C    0.249173
     9  H    0.105738
    10  C   -0.190269
    11  N   -0.245944
    12  H    0.134679
    13  C   -0.153282
    14  C   -0.039461
    15  H    0.218932
    16  H    0.125797
    17  H    0.139101
 Sum of Mulliken charges =  -0.00000
 Mulliken charges with hydrogens summed into heavy atoms:
               1
     1  C   -0.154024
     2  C    0.093671
     3  C    0.205966
     5  O   -0.208293
     6  C   -0.176047
     8  C    0.249173
    10  C   -0.055589
    11  N   -0.027012
    13  C   -0.027484
    14  C    0.099640
 Electronic spatial extent (au):  <R**2>=           2457.5311
 Charge=             -0.0000 electrons
 Dipole moment (field-independent basis, Debye):
    X=              1.3929    Y=              1.1943    Z=              3.6817  Tot=              4.1136
 Quadrupole moment (field-independent basis, Debye-Ang):
   XX=            -45.3597   YY=            -58.1032   ZZ=            -55.0961
   XY=              4.8381   XZ=              9.0077   YZ=              5.7740
 Traceless Quadrupole moment (field-independent basis, Debye-Ang):
   XX=              7.4933   YY=             -5.2502   ZZ=             -2.2431
   XY=              4.8381   XZ=              9.0077   YZ=              5.7740
 Octapole moment (field-independent basis, Debye-Ang**2):
  XXX=           -297.1164  YYY=            -17.1191  ZZZ=            -75.7103  XYY=           -112.8118
  XXY=             21.0393  XXZ=             -9.9757  XZZ=           -103.1046  YZZ=             10.5760
  YYZ=            -35.6340  XYZ=             21.9404
 Hexadecapole moment (field-independent basis, Debye-Ang**3):
 XXXX=          -2107.7332 YYYY=           -124.9128 ZZZZ=           -742.9881 XXXY=             57.7693
 XXXZ=           -196.1768 YYYX=            -73.9001 YYYZ=            -38.1569 ZZZX=           -195.7055
 ZZZY=              1.2238 XXYY=           -402.4576 XXZZ=           -457.8151 YYZZ=           -144.3991
 XXYZ=             71.2647 YYXZ=            -75.0410 ZZXY=             27.4768
 N-N= 4.801692800951D+02 E-N=-1.982878195824D+03  KE= 4.369871491033D+02
 1\1\GINC-BHC0019\SP\RB3LYP\def2TZVP\C8H7N1O1\DHANAWAY\10-Jun-2022\0\\#
  sp B3LYP/Def2TZVP NoSymm\\ts_initalOpt_zmat_AlignedSp\\0,1\C\C,1,1.41
 590314\C,1,1.37596407,2,127.71795328\H,1,1.08553481,2,118.21836886,3,-
 166.10211955,0\O,3,1.17945944,1,144.62153333,2,179.09517094,0\C,2,1.36
 916462,1,127.53786294,3,1.81543874,0\H,2,1.08422433,1,115.00596513,6,1
 74.54018168,0\C,6,1.41638221,2,117.95383127,1,-0.93794327,0\H,6,1.0816
 4578,2,120.36082519,8,171.14783768,0\C,8,1.41560941,6,125.33964482,2,-
 26.650234,0\N,8,1.3611471,6,126.86937386,10,169.32355624,0\H,10,1.0832
 9337,8,120.20679282,6,-44.12211203,0\C,10,1.44401568,8,106.66956521,12
 ,-144.90888171,0\C,11,1.39127487,8,110.16664068,6,-170.19318403,0\H,11
 ,1.00598274,8,124.18826987,14,168.71769194,0\H,13,1.07682917,10,126.47
 032565,8,178.54653234,0\H,14,1.0768922,11,120.52343789,8,178.97263519,
 0\\Version=ES64L-G16RevA.03\HF=-439.1350837\RMSD=7.373e-09\Dipole=0.54
 80151,0.4698901,1.448497\Quadrupole=5.5711184,-3.9034009,-1.6677175,3.
 5969757,6.6969752,4.2928564\PG=C01 [X(C8H7N1O1)]\\@


 THE REAL VOYAGE OF DISCOVERY CONSISTS NOT IN SEEKING NEW LANDSCAPES 
 BUT IN HAVING NEW EYES.
                                                    -- MARCEL PROUST
 Job cpu time:       0 days  0 hours 19 minutes 28.1 seconds.
 Elapsed time:       0 days  0 hours  1 minutes 44.6 seconds.
 File lengths (MBytes):  RWF=     71 Int=      0 D2E=      0 Chk=     32 Scr=      1
 Normal termination of Gaussian 16 at Fri Jun 10 02:33:09 2022.
