 Entering Gaussian System, Link 0=g16
 Input=ts_zmat_field_N75.gjf
 Output=ts_zmat_field_N75.out
 Initial command:
 /software/gaussian/g16-a03/l1.exe "/local_scratch/11171402/Gau-6078.inp" -scrdir="/local_scratch/11171402/"
 Entering Link 1 = /software/gaussian/g16-a03/l1.exe PID=      6079.
  
 Copyright (c) 1988,1990,1992,1993,1995,1998,2003,2009,2016,
            Gaussian, Inc.  All Rights Reserved.
  
 This is part of the Gaussian(R) 16 program.  It is based on
 the Gaussian(R) 09 system (copyright 2009, Gaussian, Inc.),
 the Gaussian(R) 03 system (copyright 2003, Gaussian, Inc.),
 the Gaussian(R) 98 system (copyright 1998, Gaussian, Inc.),
 the Gaussian(R) 94 system (copyright 1995, Gaussian, Inc.),
 the Gaussian 92(TM) system (copyright 1992, Gaussian, Inc.),
 the Gaussian 90(TM) system (copyright 1990, Gaussian, Inc.),
 the Gaussian 88(TM) system (copyright 1988, Gaussian, Inc.),
 the Gaussian 86(TM) system (copyright 1986, Carnegie Mellon
 University), and the Gaussian 82(TM) system (copyright 1983,
 Carnegie Mellon University). Gaussian is a federally registered
 trademark of Gaussian, Inc.
  
 This software contains proprietary and confidential information,
 including trade secrets, belonging to Gaussian, Inc.
  
 This software is provided under written license and may be
 used, copied, transmitted, or stored only in accord with that
 written license.
  
 The following legend is applicable only to US Government
 contracts under FAR:
  
                    RESTRICTED RIGHTS LEGEND
  
 Use, reproduction and disclosure by the US Government is
 subject to restrictions as set forth in subparagraphs (a)
 and (c) of the Commercial Computer Software - Restricted
 Rights clause in FAR 52.227-19.
  
 Gaussian, Inc.
 340 Quinnipiac St., Bldg. 40, Wallingford CT 06492
  
  
 ---------------------------------------------------------------
 Warning -- This program may not be used in any manner that
 competes with the business of Gaussian, Inc. or will provide
 assistance to any competitor of Gaussian, Inc.  The licensee
 of this program is prohibited from giving any competitor of
 Gaussian, Inc. access to this program.  By using this program,
 the user acknowledges that Gaussian, Inc. is engaged in the
 business of creating and licensing software in the field of
 computational chemistry and represents and warrants to the
 licensee that it is not a competitor of Gaussian, Inc. and that
 it will not use this program in any manner prohibited above.
 ---------------------------------------------------------------
  

 Cite this work as:
 Gaussian 16, Revision A.03,
 M. J. Frisch, G. W. Trucks, H. B. Schlegel, G. E. Scuseria, 
 M. A. Robb, J. R. Cheeseman, G. Scalmani, V. Barone, 
 G. A. Petersson, H. Nakatsuji, X. Li, M. Caricato, A. V. Marenich, 
 J. Bloino, B. G. Janesko, R. Gomperts, B. Mennucci, H. P. Hratchian, 
 J. V. Ortiz, A. F. Izmaylov, J. L. Sonnenberg, D. Williams-Young, 
 F. Ding, F. Lipparini, F. Egidi, J. Goings, B. Peng, A. Petrone, 
 T. Henderson, D. Ranasinghe, V. G. Zakrzewski, J. Gao, N. Rega, 
 G. Zheng, W. Liang, M. Hada, M. Ehara, K. Toyota, R. Fukuda, 
 J. Hasegawa, M. Ishida, T. Nakajima, Y. Honda, O. Kitao, H. Nakai, 
 T. Vreven, K. Throssell, J. A. Montgomery, Jr., J. E. Peralta, 
 F. Ogliaro, M. J. Bearpark, J. J. Heyd, E. N. Brothers, K. N. Kudin, 
 V. N. Staroverov, T. A. Keith, R. Kobayashi, J. Normand, 
 K. Raghavachari, A. P. Rendell, J. C. Burant, S. S. Iyengar, 
 J. Tomasi, M. Cossi, J. M. Millam, M. Klene, C. Adamo, R. Cammi, 
 J. W. Ochterski, R. L. Martin, K. Morokuma, O. Farkas, 
 J. B. Foresman, and D. J. Fox, Gaussian, Inc., Wallingford CT, 2016.
 
 ******************************************
 Gaussian 16:  ES64L-G16RevA.03 25-Dec-2016
                10-Jun-2022 
 ******************************************
 %nprocshared=12
 Will use up to   12 processors via shared memory.
 %chk=checkpoint.chk
 %mem=12GB
 ----------------------------------------------------------------------
 # Opt=(TS, CalcFC, noeigentest, Z-matrix, MaxStep=10) geom=allcheckpoi
 nt guess=read Field=read NoSymm B3LYP/Def2TZVP freq=noraman pop=none
 ----------------------------------------------------------------------
 1/5=1,8=10,10=4,11=1,18=40,26=3,29=7,38=1/1,3;
 2/12=2,15=1,29=3,40=1/2;
 3/5=44,7=101,11=2,14=-6,25=1,30=1,71=2,74=-5,116=-2,140=1/1,2,3;
 4/5=1/1;
 5/5=2,38=6/2;
 8/6=4,10=90,11=11/1;
 11/6=1,8=1,9=11,15=111,16=1,31=1/1,2,10;
 10/6=1,13=1,31=1/2;
 7/10=1,18=20,25=1,30=1/1,2,3,16;
 1/5=1,8=10,10=4,11=1,18=40,26=3/3(2);
 2/15=1,29=3/2;
 99//99;
 2/15=1,29=3/2;
 3/5=44,7=101,11=2,14=-2,25=1,30=1,71=1,74=-5/1,2,3;
 4/5=5,16=3,69=1/1;
 5/5=2,38=5/2;
 7/30=1/1,2,3,16;
 1/5=1,8=10,11=1,18=40,26=3/3(-5);
 2/15=1,29=3/2;
 99/9=1/99;
 Structure from the checkpoint file:  "checkpoint.chk"
 -----------------
 ts_zmat_initalOpt
 -----------------
 Charge =  0 Multiplicity = 1
 Z-Matrix found in chk file.
 C
 C,1,R2
 C,1,R3,2,A3
 H,1,R4,2,A4,3,D4,0
 O,3,R5,1,A5,2,D5,0
 C,2,R6,1,A6,3,D6,0
 H,2,R7,1,A7,6,D7,0
 C,6,R8,2,A8,1,D8,0
 H,6,R9,2,A9,8,D9,0
 C,8,R10,6,A10,2,D10,0
 N,8,R11,6,A11,10,D11,0
 H,10,R12,8,A12,6,D12,0
 C,10,R13,8,A13,12,D13,0
 C,11,R14,8,A14,6,D14,0
 H,11,R15,8,A15,14,D15,0
 H,13,R16,10,A16,8,D16,0
 H,14,R17,11,A17,8,D17,0
      Variables:
 R2=1.42538836
 R3=1.36815127
 R4=1.0870704
 R5=1.18180244
 R6=1.3617711
 R7=1.08400084
 R8=1.42202733
 R9=1.08170202
 R10=1.41323705
 R11=1.35873221
 R12=1.08218379
 R13=1.43968844
 R14=1.38658096
 R15=1.00680963
 R16=1.07670414
 R17=1.07681524
 A3=128.50824913
 A4=117.59150393
 A5=145.81497021
 A6=127.25178205
 A7=115.12749634
 A8=118.60804936
 A9=120.42999735
 A10=125.99172413
 A11=126.41719216
 A12=120.93091477
 A13=106.74100465
 A14=110.32270604
 A15=124.69091522
 A16=126.69377869
 A17=120.58857488
 D4=-163.68746921
 D5=180.65533597
 D6=-1.43798682
 D7=176.03912985
 D8=-0.93867392
 D9=173.34409057
 D10=-26.23431661
 D11=170.68337812
 D12=-40.76801372
 D13=-146.91980411
 D14=-172.02881636
 D15=174.20780242
 D16=177.36898162
 D17=180.48581382
 Recover connectivity data from disk.

 GradGradGradGradGradGradGradGradGradGradGradGradGradGradGradGradGradGrad
 Berny optimization.
 Initialization pass.
                       ----------------------------
                       !    Initial Parameters    !
                       ! (Angstroms and Degrees)  !
 ----------------------                            ----------------------
 !      Name          Value   Derivative information (Atomic Units)     !
 ------------------------------------------------------------------------
 !       R2          1.4254   calculate D2E/DX2 analytically            !
 !       R3          1.3682   calculate D2E/DX2 analytically            !
 !       R4          1.0871   calculate D2E/DX2 analytically            !
 !       R5          1.1818   calculate D2E/DX2 analytically            !
 !       R6          1.3618   calculate D2E/DX2 analytically            !
 !       R7          1.084    calculate D2E/DX2 analytically            !
 !       R8          1.422    calculate D2E/DX2 analytically            !
 !       R9          1.0817   calculate D2E/DX2 analytically            !
 !       R10         1.4132   calculate D2E/DX2 analytically            !
 !       R11         1.3587   calculate D2E/DX2 analytically            !
 !       R12         1.0822   calculate D2E/DX2 analytically            !
 !       R13         1.4397   calculate D2E/DX2 analytically            !
 !       R14         1.3866   calculate D2E/DX2 analytically            !
 !       R15         1.0068   calculate D2E/DX2 analytically            !
 !       R16         1.0767   calculate D2E/DX2 analytically            !
 !       R17         1.0768   calculate D2E/DX2 analytically            !
 !       A3        128.5082   calculate D2E/DX2 analytically            !
 !       A4        117.5915   calculate D2E/DX2 analytically            !
 !       A5        145.815    calculate D2E/DX2 analytically            !
 !       A6        127.2518   calculate D2E/DX2 analytically            !
 !       A7        115.1275   calculate D2E/DX2 analytically            !
 !       A8        118.608    calculate D2E/DX2 analytically            !
 !       A9        120.43     calculate D2E/DX2 analytically            !
 !       A10       125.9917   calculate D2E/DX2 analytically            !
 !       A11       126.4172   calculate D2E/DX2 analytically            !
 !       A12       120.9309   calculate D2E/DX2 analytically            !
 !       A13       106.741    calculate D2E/DX2 analytically            !
 !       A14       110.3227   calculate D2E/DX2 analytically            !
 !       A15       124.6909   calculate D2E/DX2 analytically            !
 !       A16       126.6938   calculate D2E/DX2 analytically            !
 !       A17       120.5886   calculate D2E/DX2 analytically            !
 !       D4       -163.6875   calculate D2E/DX2 analytically            !
 !       D5        180.6553   calculate D2E/DX2 analytically            !
 !       D6         -1.438    calculate D2E/DX2 analytically            !
 !       D7        176.0391   calculate D2E/DX2 analytically            !
 !       D8         -0.9387   calculate D2E/DX2 analytically            !
 !       D9        173.3441   calculate D2E/DX2 analytically            !
 !       D10       -26.2343   calculate D2E/DX2 analytically            !
 !       D11       170.6834   calculate D2E/DX2 analytically            !
 !       D12       -40.768    calculate D2E/DX2 analytically            !
 !       D13      -146.9198   calculate D2E/DX2 analytically            !
 !       D14      -172.0288   calculate D2E/DX2 analytically            !
 !       D15       174.2078   calculate D2E/DX2 analytically            !
 !       D16       177.369    calculate D2E/DX2 analytically            !
 !       D17       180.4858   calculate D2E/DX2 analytically            !
 ------------------------------------------------------------------------
 Trust Radius=1.00D-01 FncErr=1.00D-07 GrdErr=1.00D-06 EigMax=2.50D+02 EigMin=1.00D-04
 Number of steps in this run=     55 maximum allowed number of steps=    100.
 Search for a saddle point of order  1.
 GradGradGradGradGradGradGradGradGradGradGradGradGradGradGradGradGradGrad

 ---------------------------------------------------------------------------------------------------
                            Z-MATRIX (ANGSTROMS AND DEGREES)
   CD    Cent   Atom    N1       Length/X        N2       Alpha/Y        N3        Beta/Z          J
 ---------------------------------------------------------------------------------------------------
      1      1  C 
      2      2  C        1   1.425388(     1)
      3      3  C        1   1.368151(     2)      2  128.508(    17)
      4      4  H        1   1.087070(     3)      2  117.592(    18)      3 -163.687(    32)      0
      5      5  O        3   1.181802(     4)      1  145.815(    19)      2  180.655(    33)      0
      6      6  C        2   1.361771(     5)      1  127.252(    20)      3   -1.438(    34)      0
      7      7  H        2   1.084001(     6)      1  115.127(    21)      6  176.039(    35)      0
      8      8  C        6   1.422027(     7)      2  118.608(    22)      1   -0.939(    36)      0
      9      9  H        6   1.081702(     8)      2  120.430(    23)      8  173.344(    37)      0
     10     10  C        8   1.413237(     9)      6  125.992(    24)      2  -26.234(    38)      0
     11     11  N        8   1.358732(    10)      6  126.417(    25)     10  170.683(    39)      0
     12     12  H       10   1.082184(    11)      8  120.931(    26)      6  -40.768(    40)      0
     13     13  C       10   1.439688(    12)      8  106.741(    27)     12 -146.920(    41)      0
     14     14  C       11   1.386581(    13)      8  110.323(    28)      6 -172.029(    42)      0
     15     15  H       11   1.006810(    14)      8  124.691(    29)     14  174.208(    43)      0
     16     16  H       13   1.076704(    15)     10  126.694(    30)      8  177.369(    44)      0
     17     17  H       14   1.076815(    16)     11  120.589(    31)      8  180.486(    45)      0
 ---------------------------------------------------------------------------------------------------
                         Z-Matrix orientation:                         
 ---------------------------------------------------------------------
 Center     Atomic      Atomic             Coordinates (Angstroms)
 Number     Number       Type             X           Y           Z
 ---------------------------------------------------------------------
      1          6           0        0.000000    0.000000    0.000000
      2          6           0        0.000000    0.000000    1.425388
      3          6           0        1.070604    0.000000   -0.851848
      4          1           0       -0.924656    0.270608   -0.503493
      5          8           0        1.422201    0.007595   -1.980112
      6          6           0        1.083606   -0.027202    2.249694
      7          1           0       -0.977063    0.092340    1.885692
      8          6           0        2.380250   -0.080209    1.668260
      9          1           0        0.963204    0.099127    3.317226
     10          6           0        2.700265   -0.613786    0.399353
     11          7           0        3.501916    0.522852    2.141902
     12          1           0        2.240126   -1.528203    0.048304
     13          6           0        4.081644   -0.293116    0.151026
     14          6           0        4.536590    0.402160    1.226758
     15          1           0        3.548002    1.060733    2.991741
     16          1           0        4.664954   -0.581661   -0.706752
     17          1           0        5.507510    0.816322    1.439633
 ---------------------------------------------------------------------
                    Distance matrix (angstroms):
                    1          2          3          4          5
     1  C    0.000000
     2  C    1.425388   0.000000
     3  C    1.368151   2.516346   0.000000
     4  H    1.087070   2.156107   2.043439   0.000000
     5  O    2.437941   3.690548   1.181802   2.785197   0.000000
     6  C    2.497211   1.361771   3.101689   3.420795   4.243479
     7  H    2.125797   1.084001   3.419882   2.396399   4.550614
     8  C    2.907768   2.393953   2.841224   3.970137   3.773087
     9  H    3.455658   2.125238   4.171635   4.265127   5.317973
    10  C    2.797793   2.953119   2.144303   3.838924   2.771536
    11  N    4.138180   3.612503   3.891940   5.162972   4.645611
    12  H    2.712176   3.041369   2.124490   3.681853   2.672479
    13  C    4.094941   4.285992   3.187167   5.080277   3.421229
    14  C    4.716706   4.558710   4.061453   5.730295   4.487662
    15  H    4.760670   4.020812   4.694234   5.731110   5.508851
    16  H    4.753907   5.161991   3.644001   5.657864   3.533287
    17  H    5.750791   5.567697   5.059981   6.741387   5.388733
                    6          7          8          9         10
     6  C    0.000000
     7  H    2.095982   0.000000
     8  C    1.422027   3.368768   0.000000
     9  H    1.081702   2.411218   2.181574   0.000000
    10  C    2.526149   4.028716   1.413237   3.469813   0.000000
    11  N    2.482419   4.506909   1.358732   2.829485   2.229589
    12  H    2.904593   4.043817   2.177287   3.868408   1.082184
    13  C    3.669244   5.361730   2.289557   4.461316   1.439688
    14  C    3.626824   5.561524   2.253311   4.151021   2.255845
    15  H    2.794187   4.757871   2.101664   2.777014   3.200491
    16  H    4.676971   6.245590   3.333468   5.509884   2.254885
    17  H    4.575878   6.540092   3.261257   4.968948   3.317833
                   11         12         13         14         15
    11  N    0.000000
    12  H    3.190939   0.000000
    13  C    2.228335   2.219725   0.000000
    14  C    1.386581   3.223167   1.359259   0.000000
    15  H    1.006810   4.132426   3.191761   2.127484   0.000000
    16  H    3.269164   2.710322   1.076704   2.173210   4.198081
    17  H    2.145161   4.255396   2.219112   1.076815   2.511663
                   16         17
    16  H    0.000000
    17  H    2.696521   0.000000
 Symmetry turned off by external request.
 Stoichiometry    C8H7NO
 Framework group  C1[X(C8H7NO)]
 Deg. of freedom    45
 Full point group                 C1      NOp   1
 Rotational constants (GHZ):           2.1647960           1.3409071           0.8680512
 Standard basis: def2TZVP (5D, 7F)
 The following finite field(s) will be applied:
 An electric field of             -0.0044  0.0014 -0.0059
   352 basis functions,   566 primitive gaussians,   402 cartesian basis functions
    35 alpha electrons       35 beta electrons
       nuclear repulsion energy       478.5918892537 Hartrees.
 NAtoms=   17 NActive=   17 NUniq=   17 SFac= 1.00D+00 NAtFMM=   60 NAOKFM=F Big=F
 Integral buffers will be    131072 words long.
 Raffenetti 2 integral format.
 Two-electron integral symmetry is turned off.
 One-electron integrals computed using PRISM.
   1 Symmetry operations used in ECPInt.
 ECPInt:  NShTT=    9591 NPrTT=   29644 LenC2=    9326 LenP2D=   22683.
 LDataN:  DoStor=T MaxTD1= 6 Len=  172
 NBasis=   352 RedAO= T EigKep=  3.78D-05  NBF=   352
 NBsUse=   352 1.00D-06 EigRej= -1.00D+00 NBFU=   352
 The nuclear repulsion energy is now       476.8812395322 hartrees.
 Initial guess from the checkpoint file:  "checkpoint.chk"
 B after Tr=     0.000000   -0.000000    0.000000
         Rot=    1.000000    0.000000    0.000000    0.000000 Ang=   0.00 deg.
 Requested convergence on RMS density matrix=1.00D-08 within 128 cycles.
 Requested convergence on MAX density matrix=1.00D-06.
 Requested convergence on             energy=1.00D-06.
 No special actions if energy rises.
 SCF Done:  E(RB3LYP) =  -439.149295972     A.U. after   11 cycles
            NFock= 11  Conv=0.46D-08     -V/T= 2.0050
 DoSCS=F DFT=T ScalE2(SS,OS)=  1.000000  1.000000
 Range of M.O.s used for correlation:     1   352
 NBasis=   352 NAE=    35 NBE=    35 NFC=     0 NFV=     0
 NROrb=    352 NOA=    35 NOB=    35 NVA=   317 NVB=   317

 **** Warning!!: The largest alpha MO coefficient is  0.29612318D+02

   1 Symmetry operations used in ECPInt.
 ECPInt:  NShTT=    9591 NPrTT=   29644 LenC2=    9326 LenP2D=   22683.
 LDataN:  DoStor=T MaxTD1= 7 Len=  274
 Symmetrizing basis deriv contribution to polar:
 IMax=3 JMax=2 DiffMx= 0.00D+00
 G2DrvN: will do    18 centers at a time, making    1 passes.
 Calling FoFCou, ICntrl=  3107 FMM=F I1Cent=   0 AccDes= 0.00D+00.
 End of G2Drv F.D. properties file   721 does not exist.
 End of G2Drv F.D. properties file   722 does not exist.
 End of G2Drv F.D. properties file   788 does not exist.
          IDoAtm=11111111111111111
          Differentiating once with respect to nuclear coordinates.
 CalDSu exits because no D1Ps are significant.
          There are    54 degrees of freedom in the 1st order CPHF.  IDoFFX=6 NUNeed=     0.
     48 vectors produced by pass  0 Test12= 2.05D-14 1.85D-09 XBig12= 1.69D-01 1.44D-01.
 AX will form    48 AO Fock derivatives at one time.
     48 vectors produced by pass  1 Test12= 2.05D-14 1.85D-09 XBig12= 4.75D-02 8.17D-02.
     48 vectors produced by pass  2 Test12= 2.05D-14 1.85D-09 XBig12= 6.28D-04 3.34D-03.
     48 vectors produced by pass  3 Test12= 2.05D-14 1.85D-09 XBig12= 3.51D-06 1.89D-04.
     48 vectors produced by pass  4 Test12= 2.05D-14 1.85D-09 XBig12= 1.16D-08 1.18D-05.
     48 vectors produced by pass  5 Test12= 2.05D-14 1.85D-09 XBig12= 2.39D-11 4.87D-07.
     20 vectors produced by pass  6 Test12= 2.05D-14 1.85D-09 XBig12= 3.83D-14 1.89D-08.
 InvSVY:  IOpt=1 It=  1 EMax= 5.00D-16
 Solved reduced A of dimension   308 with    54 vectors.
 End of Minotr F.D. properties file   721 does not exist.
 End of Minotr F.D. properties file   722 does not exist.
 End of Minotr F.D. properties file   788 does not exist.
   1 Symmetry operations used in ECPInt.
 ECPInt:  NShTT=    9591 NPrTT=   29644 LenC2=    9326 LenP2D=   22683.
 LDataN:  DoStor=T MaxTD1= 8 Len=  415
 Calling FoFJK, ICntrl=    100147 FMM=F ISym2X=0 I1Cent= 0 IOpClX= 0 NMat=1 NMatS=1 NMatT=0.
 -------------------------------------------------------------------
 Center     Atomic                   Forces (Hartrees/Bohr)
 Number     Number              X              Y              Z
 -------------------------------------------------------------------
      1        6          -0.000222362    0.002581334   -0.002043337
      2        6           0.001160852   -0.001672235    0.001797267
      3        6           0.001033179   -0.001249432    0.005918981
      4        1          -0.000496136    0.000079866   -0.000046961
      5        8           0.000085276    0.000159401   -0.004823562
      6        6          -0.000908588    0.000267092   -0.000497017
      7        1           0.000016672   -0.000067578    0.000196388
      8        6           0.001068791    0.000910383    0.001071249
      9        1           0.000067431   -0.000179198   -0.000027155
     10        6          -0.001176980    0.000240599   -0.001740836
     11        7          -0.001069804   -0.000513337   -0.001136954
     12        1           0.000254493   -0.000401067    0.000386240
     13        6          -0.000029082    0.000351891   -0.000348595
     14        6          -0.000424664    0.000026708    0.000165261
     15        1           0.000402784   -0.000175330    0.000712382
     16        1           0.000135268   -0.000151652    0.000205563
     17        1           0.000102870   -0.000207444    0.000211085
 -------------------------------------------------------------------
 Cartesian Forces:  Max     0.005918981 RMS     0.001348262
 -----------------------------------------------------------------------------------------------
                       Internal Coordinate Forces (Hartree/Bohr or radian)
  Cent   Atom   N1       Length/X         N2         Alpha/Y        N3         Beta/Z          J
 -----------------------------------------------------------------------------------------------
      1  C 
      2  C        1   0.000995(     1)
      3  C        1   0.000193(     2)      2  -0.000994(    17)
      4  H        1   0.000464(     3)      2  -0.000389(    18)      3  -0.000114(    32)     0
      5  O        3   0.004631(     4)      1  -0.003026(    19)      2   0.000147(    33)     0
      6  C        2  -0.001863(     5)      1  -0.003928(    20)      3  -0.001139(    34)     0
      7  H        2   0.000063(     6)      1   0.000384(    21)      6   0.000122(    35)     0
      8  C        6  -0.000480(     7)      2  -0.004245(    22)      1   0.000894(    36)     0
      9  H        6  -0.000055(     8)      2   0.000163(    23)      8   0.000295(    37)     0
     10  C        8   0.001145(     9)      6  -0.002414(    24)      2   0.002336(    38)     0
     11  N        8  -0.001219(    10)      6   0.000178(    25)     10   0.002296(    39)     0
     12  H       10   0.000105(    11)      8  -0.000458(    26)      6  -0.001343(    40)     0
     13  C       10   0.000171(    12)      8  -0.000165(    27)     12  -0.000361(    41)     0
     14  C       11  -0.000473(    13)      8   0.000027(    28)      6   0.000275(    42)     0
     15  H       11   0.000526(    14)      8   0.000471(    29)     14   0.000942(    43)     0
     16  H       13  -0.000050(    15)     10   0.000229(    30)      8  -0.000427(    44)     0
     17  H       14   0.000055(    16)     11  -0.000171(    31)      8   0.000520(    45)     0
 -----------------------------------------------------------------------------------------------
 Internal  Forces:  Max     0.004631436 RMS     0.001463449

 GradGradGradGradGradGradGradGradGradGradGradGradGradGradGradGradGradGrad
 Berny optimization.
 Search for a saddle point.
 Step number   1 out of a maximum of   55
 All quantities printed in internal units (Hartrees-Bohrs-Radians)
 Swapping is turned off.
 Second derivative matrix not updated -- analytic derivatives used.
 ITU=  0
     Eigenvalues ---   -0.16530   0.01640   0.01919   0.02217   0.02955
     Eigenvalues ---    0.04536   0.04963   0.05069   0.06408   0.07351
     Eigenvalues ---    0.10880   0.13718   0.15567   0.15927   0.16734
     Eigenvalues ---    0.18951   0.19164   0.19617   0.22102   0.25135
     Eigenvalues ---    0.29871   0.32084   0.33590   0.34339   0.34969
     Eigenvalues ---    0.35463   0.35732   0.36017   0.37169   0.37314
     Eigenvalues ---    0.37591   0.39140   0.40739   0.45912   0.46726
     Eigenvalues ---    0.48667   0.51184   0.57359   0.61237   0.75562
     Eigenvalues ---    0.87181   1.48465   1.92283   2.05292  25.19048
 Eigenvectors required to have negative eigenvalues:
                          A5        D12       A8        D13       A3
   1                    0.63525   0.32285   0.29689  -0.25639   0.21529
                          R3        A10       A11       A12       A6
   1                   -0.21247   0.17363  -0.16669   0.15946   0.13603
 RFO step:  Lambda0=1.992668474D-04 Lambda=-2.35274145D-04.
 Linear search not attempted -- option 19 set.
 Variable       Old X    -DE/DX   Delta X   Delta X   Delta X     New X
                                 (Linear)    (Quad)   (Total)
    R2        2.69359   0.00099   0.00000   0.00841   0.00841   2.70201
    R3        2.58543   0.00019   0.00000  -0.00710  -0.00710   2.57833
    R4        2.05427   0.00046   0.00000   0.00189   0.00189   2.05616
    R5        2.23328   0.00463   0.00000   0.00215   0.00215   2.23543
    R6        2.57337  -0.00186   0.00000  -0.00577  -0.00577   2.56760
    R7        2.04846   0.00006   0.00000  -0.00022  -0.00022   2.04825
    R8        2.68724  -0.00048   0.00000   0.00434   0.00434   2.69158
    R9        2.04412  -0.00006   0.00000   0.00026   0.00026   2.04438
   R10        2.67063   0.00114   0.00000  -0.00177  -0.00177   2.66886
   R11        2.56763  -0.00122   0.00000  -0.00119  -0.00119   2.56644
   R12        2.04503   0.00011   0.00000  -0.00111  -0.00111   2.04392
   R13        2.72062   0.00017   0.00000  -0.00426  -0.00426   2.71636
   R14        2.62026  -0.00047   0.00000  -0.00445  -0.00445   2.61581
   R15        1.90259   0.00053   0.00000   0.00109   0.00109   1.90369
   R16        2.03468  -0.00005   0.00000  -0.00007  -0.00007   2.03461
   R17        2.03489   0.00005   0.00000   0.00013   0.00013   2.03502
    A3        2.24289  -0.00099   0.00000   0.00764   0.00764   2.25054
    A4        2.05236  -0.00039   0.00000  -0.00551  -0.00551   2.04685
    A5        2.54495  -0.00303   0.00000   0.01130   0.01130   2.55625
    A6        2.22096  -0.00393   0.00000  -0.00229  -0.00229   2.21867
    A7        2.00935   0.00038   0.00000   0.00082   0.00082   2.01017
    A8        2.07010  -0.00425   0.00000   0.00708   0.00708   2.07718
    A9        2.10190   0.00016   0.00000  -0.00070  -0.00070   2.10120
   A10        2.19897  -0.00241   0.00000   0.00622   0.00622   2.20519
   A11        2.20640   0.00018   0.00000  -0.00434  -0.00434   2.20206
   A12        2.11064  -0.00046   0.00000   0.00655   0.00655   2.11719
   A13        1.86298  -0.00017   0.00000   0.00060   0.00060   1.86359
   A14        1.92549   0.00003   0.00000   0.00089   0.00089   1.92638
   A15        2.17627   0.00047   0.00000   0.00324   0.00324   2.17951
   A16        2.21122   0.00023   0.00000   0.00198   0.00198   2.21320
   A17        2.10467  -0.00017   0.00000   0.00044   0.00044   2.10511
    D4       -2.85689  -0.00011   0.00000   0.01978   0.01978  -2.83711
    D5        3.15303   0.00015   0.00000   0.00908   0.00908   3.16211
    D6       -0.02510  -0.00114   0.00000  -0.02841  -0.02841  -0.05351
    D7        3.07246   0.00012   0.00000   0.01235   0.01235   3.08481
    D8       -0.01638   0.00089   0.00000   0.00004   0.00004  -0.01635
    D9        3.02543   0.00029   0.00000   0.01536   0.01536   3.04079
   D10       -0.45788   0.00234   0.00000   0.00427   0.00427  -0.45361
   D11        2.97899   0.00230   0.00000   0.01442   0.01442   2.99341
   D12       -0.71154  -0.00134   0.00000   0.03053   0.03053  -0.68101
   D13       -2.56423  -0.00036   0.00000  -0.01846  -0.01846  -2.58269
   D14       -3.00247   0.00028   0.00000  -0.01581  -0.01581  -3.01828
   D15        3.04050   0.00094   0.00000   0.03603   0.03603   3.07653
   D16        3.09567  -0.00043   0.00000  -0.01000  -0.01000   3.08567
   D17        3.15007   0.00052   0.00000   0.01088   0.01088   3.16095
         Item               Value     Threshold  Converged?
 Maximum Force            0.004631     0.000450     NO 
 RMS     Force            0.001463     0.000300     NO 
 Maximum Displacement     0.036029     0.001800     NO 
 RMS     Displacement     0.011106     0.001200     NO 
 Predicted change in Energy=-1.839722D-05
 GradGradGradGradGradGradGradGradGradGradGradGradGradGradGradGradGradGrad

 ---------------------------------------------------------------------------------------------------
                            Z-MATRIX (ANGSTROMS AND DEGREES)
   CD    Cent   Atom    N1       Length/X        N2       Alpha/Y        N3        Beta/Z          J
 ---------------------------------------------------------------------------------------------------
      1      1  C 
      2      2  C        1   1.429841(     1)
      3      3  C        1   1.364393(     2)      2  128.946(    17)
      4      4  H        1   1.088071(     3)      2  117.276(    18)      3 -162.554(    32)      0
      5      5  O        3   1.182939(     4)      1  146.463(    19)      2  181.176(    33)      0
      6      6  C        2   1.358717(     5)      1  127.120(    20)      3   -3.066(    34)      0
      7      7  H        2   1.083887(     6)      1  115.175(    21)      6  176.747(    35)      0
      8      8  C        6   1.424323(     7)      2  119.014(    22)      1   -0.937(    36)      0
      9      9  H        6   1.081842(     8)      2  120.390(    23)      8  174.224(    37)      0
     10     10  C        8   1.412300(     9)      6  126.348(    24)      2  -25.990(    38)      0
     11     11  N        8   1.358101(    10)      6  126.168(    25)     10  171.510(    39)      0
     12     12  H       10   1.081594(    11)      8  121.306(    26)      6  -39.019(    40)      0
     13     13  C       10   1.437435(    12)      8  106.776(    27)     12 -147.977(    41)      0
     14     14  C       11   1.384227(    13)      8  110.374(    28)      6 -172.934(    42)      0
     15     15  H       11   1.007388(    14)      8  124.877(    29)     14  176.272(    43)      0
     16     16  H       13   1.076667(    15)     10  126.807(    30)      8  176.796(    44)      0
     17     17  H       14   1.076884(    16)     11  120.614(    31)      8  181.109(    45)      0
 ---------------------------------------------------------------------------------------------------
                         Z-Matrix orientation:                         
 ---------------------------------------------------------------------
 Center     Atomic      Atomic             Coordinates (Angstroms)
 Number     Number       Type             X           Y           Z
 ---------------------------------------------------------------------
      1          6           0        0.000000    0.000000    0.000000
      2          6           0        0.000000    0.000000    1.429841
      3          6           0        1.061138    0.000000   -0.857644
      4          1           0       -0.922603    0.289934   -0.498639
      5          8           0        1.417263    0.013411   -1.985625
      6          6           0        1.081848   -0.057940    2.249816
      7          1           0       -0.974975    0.107966    1.890901
      8          6           0        2.381331   -0.147925    1.673672
      9          1           0        0.964925    0.057553    3.319101
     10          6           0        2.699886   -0.684203    0.406581
     11          7           0        3.517441    0.408416    2.167816
     12          1           0        2.202533   -1.567282    0.028882
     13          6           0        4.093915   -0.415814    0.181034
     14          6           0        4.560195    0.251934    1.271011
     15          1           0        3.579960    0.916075    3.035689
     16          1           0        4.682062   -0.727173   -0.665341
     17          1           0        5.545256    0.618139    1.506019
 ---------------------------------------------------------------------
                    Distance matrix (angstroms):
                    1          2          3          4          5
     1  C    0.000000
     2  C    1.429841   0.000000
     3  C    1.364393   2.521627   0.000000
     4  H    1.088071   2.157381   2.036707   0.000000
     5  O    2.439574   3.697867   1.182939   2.786138   0.000000
     6  C    2.497083   1.358717   3.108070   3.419480   4.249300
     7  H    2.130198   1.083887   3.422268   2.397031   4.556226
     8  C    2.914412   2.398348   2.858733   3.978271   3.787599
     9  H    3.456997   2.122191   4.178250   4.265197   5.324160
    10  C    2.814752   2.967251   2.179884   3.858859   2.802576
    11  N    4.151942   3.617154   3.918372   5.180542   4.670958
    12  H    2.703398   3.044703   2.131921   3.673419   2.678335
    13  C    4.118958   4.300298   3.232568   5.111310   3.470319
    14  C    4.740709   4.569910   4.103419   5.761440   4.532173
    15  H    4.782334   4.029150   4.726701   5.758177   5.541268
    16  H    4.784680   5.180760   3.698223   5.698646   3.598684
    17  H    5.779278   5.580122   5.106497   6.779349   5.440367
                    6          7          8          9         10
     6  C    0.000000
     7  H    2.094485   0.000000
     8  C    1.424323   3.373050   0.000000
     9  H    1.081842   2.409462   2.180795   0.000000
    10  C    2.531357   4.041701   1.412300   3.470313   0.000000
    11  N    2.481194   4.510959   1.358101   2.822038   2.228040
    12  H    2.909742   4.046002   2.179880   3.872636   1.081594
    13  C    3.671577   5.375095   2.287504   4.456694   1.437435
    14  C    3.626704   5.571634   2.251549   4.142274   2.254848
    15  H    2.794077   4.765608   2.103307   2.766910   3.201192
    16  H    4.680550   6.263697   3.331647   5.505332   2.253859
    17  H    4.575185   6.551475   3.259659   4.957918   3.316773
                   11         12         13         14         15
    11  N    0.000000
    12  H    3.194903   0.000000
    13  C    2.226877   2.219539   0.000000
    14  C    1.384227   3.226608   1.360645   0.000000
    15  H    1.007388   4.135850   3.191729   2.125096   0.000000
    16  H    3.266907   2.708467   1.076667   2.173237   4.196727
    17  H    2.143360   4.258144   2.220593   1.076884   2.508195
                   16         17
    16  H    0.000000
    17  H    2.696251   0.000000
 Symmetry turned off by external request.
 Stoichiometry    C8H7NO
 Framework group  C1[X(C8H7NO)]
 Deg. of freedom    45
 Full point group                 C1      NOp   1
 Rotational constants (GHZ):           2.1692948           1.3219898           0.8604908
 Standard basis: def2TZVP (5D, 7F)
 The following finite field(s) will be applied:
 An electric field of             -0.0044  0.0014 -0.0059
   352 basis functions,   566 primitive gaussians,   402 cartesian basis functions
    35 alpha electrons       35 beta electrons
       nuclear repulsion energy       477.6088311563 Hartrees.
 NAtoms=   17 NActive=   17 NUniq=   17 SFac= 1.00D+00 NAtFMM=   60 NAOKFM=F Big=F
 Integral buffers will be    131072 words long.
 Raffenetti 2 integral format.
 Two-electron integral symmetry is turned off.
 One-electron integrals computed using PRISM.
   1 Symmetry operations used in ECPInt.
 ECPInt:  NShTT=    9591 NPrTT=   29644 LenC2=    9323 LenP2D=   22665.
 LDataN:  DoStor=T MaxTD1= 6 Len=  172
 NBasis=   352 RedAO= T EigKep=  3.88D-05  NBF=   352
 NBsUse=   352 1.00D-06 EigRej= -1.00D+00 NBFU=   352
 The nuclear repulsion energy is now       475.8763712137 hartrees.
 Initial guess from the checkpoint file:  "checkpoint.chk"
 B after Tr=     0.015234    0.034250    0.003774
         Rot=    0.999852   -0.005901    0.002342    0.016004 Ang=  -1.97 deg.
 ExpMin= 9.52D-02 ExpMax= 2.70D+04 ExpMxC= 9.22D+02 IAcc=2 IRadAn=         4 AccDes= 0.00D+00
 Harris functional with IExCor=  402 and IRadAn=       4 diagonalized for initial guess.
 HarFok:  IExCor=  402 AccDes= 0.00D+00 IRadAn=         4 IDoV= 1 UseB2=F ITyADJ=14
 ICtDFT=  3500011 ScaDFX=  1.000000  1.000000  1.000000  1.000000
 FoFCou: FMM=F IPFlag=           0 FMFlag=      100000 FMFlg1=           0
         NFxFlg=           0 DoJE=T BraDBF=F KetDBF=T FulRan=T
         wScrn=  0.000000 ICntrl=       500 IOpCl=  0 I1Cent=   200000004 NGrid=           0
         NMat0=    1 NMatS0=      1 NMatT0=    0 NMatD0=    1 NMtDS0=    0 NMtDT0=    0
 Symmetry not used in FoFCou.
 Requested convergence on RMS density matrix=1.00D-08 within 128 cycles.
 Requested convergence on MAX density matrix=1.00D-06.
 Requested convergence on             energy=1.00D-06.
 No special actions if energy rises.
 Integral accuracy reduced to 1.0D-05 until final iterations.
 Initial convergence to 1.0D-05 achieved.  Increase integral accuracy.
 SCF Done:  E(RB3LYP) =  -439.149313947     A.U. after   13 cycles
            NFock= 13  Conv=0.77D-08     -V/T= 2.0050
   1 Symmetry operations used in ECPInt.
 ECPInt:  NShTT=    9591 NPrTT=   29644 LenC2=    9323 LenP2D=   22665.
 LDataN:  DoStor=T MaxTD1= 7 Len=  274
 Calling FoFJK, ICntrl=      2127 FMM=F ISym2X=0 I1Cent= 0 IOpClX= 0 NMat=1 NMatS=1 NMatT=0.
 -------------------------------------------------------------------
 Center     Atomic                   Forces (Hartrees/Bohr)
 Number     Number              X              Y              Z
 -------------------------------------------------------------------
      1        6          -0.001029865    0.003919335    0.000030534
      2        6           0.000904556   -0.002552090   -0.000050487
      3        6           0.000058250   -0.001332559    0.000076597
      4        1          -0.000012049   -0.000016321    0.000002387
      5        8           0.000022781   -0.000021533   -0.000066645
      6        6           0.000116345   -0.000012712    0.000022180
      7        1          -0.000002380    0.000005711   -0.000002885
      8        6          -0.000076548    0.000009891    0.000062107
      9        1          -0.000005828    0.000015479   -0.000000464
     10        6          -0.000052564    0.000000456   -0.000139115
     11        7           0.000052192    0.000026646    0.000079162
     12        1          -0.000011357   -0.000015825    0.000012506
     13        6           0.000026854   -0.000077411   -0.000090494
     14        6           0.000042144    0.000057894    0.000055986
     15        1          -0.000023394   -0.000008515    0.000013261
     16        1          -0.000009897    0.000000510   -0.000010187
     17        1           0.000000760    0.000001044    0.000005558
 -------------------------------------------------------------------
 Cartesian Forces:  Max     0.003919335 RMS     0.000708884
 -----------------------------------------------------------------------------------------------
                       Internal Coordinate Forces (Hartree/Bohr or radian)
  Cent   Atom   N1       Length/X         N2         Alpha/Y        N3         Beta/Z          J
 -----------------------------------------------------------------------------------------------
      1  C 
      2  C        1  -0.000043(     1)
      3  C        1   0.000057(     2)      2  -0.000155(    17)
      4  H        1   0.000005(     3)      2  -0.000011(    18)      3  -0.000035(    32)     0
      5  O        3   0.000070(     4)      1   0.000005(    19)      2  -0.000028(    33)     0
      6  C        2   0.000053(     5)      1  -0.000192(    20)      3  -0.000115(    34)     0
      7  H        2   0.000001(     6)      1  -0.000008(    21)      6  -0.000010(    35)     0
      8  C        6  -0.000042(     7)      2  -0.000138(    22)      1  -0.000016(    36)     0
      9  H        6   0.000002(     8)      2  -0.000015(    23)      8  -0.000026(    37)     0
     10  C        8   0.000228(     9)      6  -0.000646(    24)      2   0.000123(    38)     0
     11  N        8   0.000148(    10)      6  -0.000585(    25)     10   0.000118(    39)     0
     12  H       10   0.000014(    11)      8  -0.000036(    26)      6   0.000057(    40)     0
     13  C       10   0.000018(    12)      8   0.000360(    27)     12   0.000069(    41)     0
     14  C       11  -0.000014(    13)      8   0.000254(    28)      6   0.000049(    42)     0
     15  H       11   0.000006(    14)      8  -0.000050(    29)     14   0.000014(    43)     0
     16  H       13   0.000002(    15)     10  -0.000024(    30)      8   0.000012(    44)     0
     17  H       14   0.000002(    16)     11  -0.000010(    31)      8   0.000003(    45)     0
 -----------------------------------------------------------------------------------------------
 Internal  Forces:  Max     0.000646021 RMS     0.000162156

 GradGradGradGradGradGradGradGradGradGradGradGradGradGradGradGradGradGrad
 Berny optimization.
 Search for a saddle point.
 Step number   2 out of a maximum of   55
 All quantities printed in internal units (Hartrees-Bohrs-Radians)
 Swapping is turned off.
 Update second derivatives using D2CorN and points    1    2
 ITU=  0  0
     Eigenvalues ---   -0.16433   0.01632   0.01923   0.02216   0.02950
     Eigenvalues ---    0.04536   0.04960   0.05070   0.06410   0.07352
     Eigenvalues ---    0.10826   0.13718   0.15566   0.15927   0.16736
     Eigenvalues ---    0.18948   0.19165   0.19615   0.22103   0.25135
     Eigenvalues ---    0.29872   0.32086   0.33590   0.34339   0.34969
     Eigenvalues ---    0.35463   0.35732   0.36017   0.37168   0.37314
     Eigenvalues ---    0.37591   0.39143   0.40738   0.45911   0.46727
     Eigenvalues ---    0.48668   0.51184   0.57360   0.61237   0.75556
     Eigenvalues ---    0.87176   1.48464   1.92279   2.05292  25.19047
 Eigenvectors required to have negative eigenvalues:
                          A5        D12       A8        D13       A3
   1                    0.63614   0.32195   0.29696  -0.25608   0.21519
                          R3        A10       A11       A12       A6
   1                   -0.21234   0.17350  -0.16688   0.15924   0.13596
 RFO step:  Lambda0=1.616102348D-07 Lambda=-4.81325771D-07.
 Linear search not attempted -- option 19 set.
 Variable       Old X    -DE/DX   Delta X   Delta X   Delta X     New X
                                 (Linear)    (Quad)   (Total)
    R2        2.70201  -0.00004   0.00000   0.00004   0.00004   2.70205
    R3        2.57833   0.00006   0.00000   0.00001   0.00001   2.57834
    R4        2.05616   0.00000   0.00000   0.00003   0.00003   2.05618
    R5        2.23543   0.00007   0.00000  -0.00004  -0.00004   2.23539
    R6        2.56760   0.00005   0.00000   0.00011   0.00011   2.56772
    R7        2.04825   0.00000   0.00000  -0.00001  -0.00001   2.04824
    R8        2.69158  -0.00004   0.00000  -0.00011  -0.00011   2.69147
    R9        2.04438   0.00000   0.00000   0.00002   0.00002   2.04440
   R10        2.66886   0.00023   0.00000   0.00010   0.00010   2.66896
   R11        2.56644   0.00015   0.00000   0.00021   0.00021   2.56665
   R12        2.04392   0.00001   0.00000  -0.00001  -0.00001   2.04391
   R13        2.71636   0.00002   0.00000  -0.00005  -0.00005   2.71631
   R14        2.61581  -0.00001   0.00000  -0.00006  -0.00006   2.61575
   R15        1.90369   0.00001   0.00000   0.00001   0.00001   1.90369
   R16        2.03461   0.00000   0.00000   0.00000   0.00000   2.03461
   R17        2.03502   0.00000   0.00000   0.00001   0.00001   2.03502
    A3        2.25054  -0.00015   0.00000   0.00010   0.00010   2.25063
    A4        2.04685  -0.00001   0.00000  -0.00010  -0.00010   2.04675
    A5        2.55625   0.00000   0.00000   0.00056   0.00056   2.55682
    A6        2.21867  -0.00019   0.00000  -0.00002  -0.00002   2.21865
    A7        2.01017  -0.00001   0.00000  -0.00002  -0.00002   2.01015
    A8        2.07718  -0.00014   0.00000   0.00035   0.00035   2.07753
    A9        2.10120  -0.00002   0.00000  -0.00025  -0.00025   2.10095
   A10        2.20519  -0.00065   0.00000   0.00022   0.00022   2.20541
   A11        2.20206  -0.00058   0.00000  -0.00020  -0.00020   2.20186
   A12        2.11719  -0.00004   0.00000   0.00002   0.00002   2.11721
   A13        1.86359   0.00036   0.00000   0.00001   0.00001   1.86360
   A14        1.92638   0.00025   0.00000  -0.00005  -0.00005   1.92633
   A15        2.17951  -0.00005   0.00000  -0.00018  -0.00018   2.17933
   A16        2.21320  -0.00002   0.00000  -0.00004  -0.00004   2.21317
   A17        2.10511  -0.00001   0.00000  -0.00001  -0.00001   2.10510
    D4       -2.83711  -0.00004   0.00000   0.00076   0.00076  -2.83635
    D5        3.16211  -0.00003   0.00000   0.00007   0.00007   3.16219
    D6       -0.05351  -0.00011   0.00000  -0.00163  -0.00163  -0.05513
    D7        3.08481  -0.00001   0.00000   0.00012   0.00012   3.08493
    D8       -0.01635  -0.00002   0.00000  -0.00017  -0.00017  -0.01652
    D9        3.04079  -0.00003   0.00000  -0.00005  -0.00005   3.04074
   D10       -0.45361   0.00012   0.00000   0.00087   0.00087  -0.45273
   D11        2.99341   0.00012   0.00000   0.00051   0.00051   2.99392
   D12       -0.68101   0.00006   0.00000   0.00089   0.00089  -0.68012
   D13       -2.58269   0.00007   0.00000  -0.00046  -0.00046  -2.58315
   D14       -3.01828   0.00005   0.00000  -0.00036  -0.00036  -3.01864
   D15        3.07653   0.00001   0.00000   0.00019   0.00019   3.07672
   D16        3.08567   0.00001   0.00000   0.00016   0.00016   3.08583
   D17        3.16095   0.00000   0.00000  -0.00005  -0.00005   3.16090
         Item               Value     Threshold  Converged?
 Maximum Force            0.000646     0.000450     NO 
 RMS     Force            0.000162     0.000300     YES
 Maximum Displacement     0.001628     0.001800     YES
 RMS     Displacement     0.000372     0.001200     YES
 Predicted change in Energy=-1.598577D-07
 GradGradGradGradGradGradGradGradGradGradGradGradGradGradGradGradGradGrad

 ---------------------------------------------------------------------------------------------------
                            Z-MATRIX (ANGSTROMS AND DEGREES)
   CD    Cent   Atom    N1       Length/X        N2       Alpha/Y        N3        Beta/Z          J
 ---------------------------------------------------------------------------------------------------
      1      1  C 
      2      2  C        1   1.429863(     1)
      3      3  C        1   1.364397(     2)      2  128.952(    17)
      4      4  H        1   1.088085(     3)      2  117.270(    18)      3 -162.511(    32)      0
      5      5  O        3   1.182917(     4)      1  146.495(    19)      2  181.180(    33)      0
      6      6  C        2   1.358777(     5)      1  127.119(    20)      3   -3.159(    34)      0
      7      7  H        2   1.083880(     6)      1  115.173(    21)      6  176.754(    35)      0
      8      8  C        6   1.424264(     7)      2  119.034(    22)      1   -0.946(    36)      0
      9      9  H        6   1.081852(     8)      2  120.375(    23)      8  174.221(    37)      0
     10     10  C        8   1.412350(     9)      6  126.361(    24)      2  -25.940(    38)      0
     11     11  N        8   1.358212(    10)      6  126.157(    25)     10  171.539(    39)      0
     12     12  H       10   1.081591(    11)      8  121.307(    26)      6  -38.968(    40)      0
     13     13  C       10   1.437409(    12)      8  106.776(    27)     12 -148.004(    41)      0
     14     14  C       11   1.384197(    13)      8  110.371(    28)      6 -172.955(    42)      0
     15     15  H       11   1.007392(    14)      8  124.866(    29)     14  176.283(    43)      0
     16     16  H       13   1.076669(    15)     10  126.805(    30)      8  176.805(    44)      0
     17     17  H       14   1.076887(    16)     11  120.613(    31)      8  181.106(    45)      0
 ---------------------------------------------------------------------------------------------------
                         Z-Matrix orientation:                         
 ---------------------------------------------------------------------
 Center     Atomic      Atomic             Coordinates (Angstroms)
 Number     Number       Type             X           Y           Z
 ---------------------------------------------------------------------
      1          6           0        0.000000    0.000000    0.000000
      2          6           0        0.000000    0.000000    1.429863
      3          6           0        1.061058    0.000000   -0.857750
      4          1           0       -0.922444    0.290653   -0.498545
      5          8           0        1.417704    0.013446   -1.985542
      6          6           0        1.081818   -0.059705    2.249850
      7          1           0       -0.974816    0.109433    1.890899
      8          6           0        2.381273   -0.152019    1.674156
      9          1           0        0.964864    0.056215    3.319097
     10          6           0        2.699498   -0.688103    0.406844
     11          7           0        3.518402    0.401324    2.169625
     12          1           0        2.200045   -1.569459    0.027904
     13          6           0        4.094300   -0.422868    0.182516
     14          6           0        4.561374    0.243154    1.273415
     15          1           0        3.581324    0.907953    3.038076
     16          1           0        4.682255   -0.734883   -0.663752
     17          1           0        5.547115    0.606908    1.509386
 ---------------------------------------------------------------------
                    Distance matrix (angstroms):
                    1          2          3          4          5
     1  C    0.000000
     2  C    1.429863   0.000000
     3  C    1.364397   2.521709   0.000000
     4  H    1.088085   2.157345   2.036612   0.000000
     5  O    2.439763   3.697980   1.182917   2.786449   0.000000
     6  C    2.497143   1.358777   3.108243   3.419575   4.249320
     7  H    2.130197   1.083880   3.422255   2.396878   4.556332
     8  C    2.914853   2.398593   2.859480   3.978836   3.788038
     9  H    3.456953   2.122104   4.178333   4.265124   5.324105
    10  C    2.815368   2.967717   2.181093   3.859554   2.803333
    11  N    4.153010   3.617660   3.919770   5.181939   4.672130
    12  H    2.702624   3.044485   2.131871   3.672479   2.677986
    13  C    4.120124   4.300928   3.234428   5.112795   3.472032
    14  C    4.742029   4.570529   4.105264   5.763190   4.533897
    15  H    4.783322   4.029468   4.727957   5.759572   5.542394
    16  H    4.785826   5.181389   3.700102   5.700146   3.600613
    17  H    5.780750   5.580784   5.108461   6.781372   5.442311
                    6          7          8          9         10
     6  C    0.000000
     7  H    2.094565   0.000000
     8  C    1.424264   3.373229   0.000000
     9  H    1.081852   2.409345   2.180690   0.000000
    10  C    2.531491   4.042161   1.412350   3.470473   0.000000
    11  N    2.481114   4.511308   1.358212   2.821514   2.228195
    12  H    2.909782   4.045883   2.179937   3.873040   1.081591
    13  C    3.671621   5.375672   2.287533   4.456571   1.437409
    14  C    3.626632   5.572124   2.251576   4.141817   2.254943
    15  H    2.793777   4.765718   2.103317   2.765917   3.201311
    16  H    4.680608   6.264309   3.331676   5.505263   2.253817
    17  H    4.575100   6.551994   3.259705   4.957353   3.316862
                   11         12         13         14         15
    11  N    0.000000
    12  H    3.195156   0.000000
    13  C    2.227006   2.219635   0.000000
    14  C    1.384197   3.226878   1.360810   0.000000
    15  H    1.007392   4.136017   3.191935   2.125202   0.000000
    16  H    3.267040   2.708556   1.076669   2.173427   4.196962
    17  H    2.143329   4.258432   2.220742   1.076887   2.508357
                   16         17
    16  H    0.000000
    17  H    2.696463   0.000000
 Symmetry turned off by external request.
 Stoichiometry    C8H7NO
 Framework group  C1[X(C8H7NO)]
 Deg. of freedom    45
 Full point group                 C1      NOp   1
 Rotational constants (GHZ):           2.1696189           1.3211811           0.8601512
 Standard basis: def2TZVP (5D, 7F)
 The following finite field(s) will be applied:
 An electric field of             -0.0044  0.0014 -0.0059
   352 basis functions,   566 primitive gaussians,   402 cartesian basis functions
    35 alpha electrons       35 beta electrons
       nuclear repulsion energy       477.5640084318 Hartrees.
 NAtoms=   17 NActive=   17 NUniq=   17 SFac= 1.00D+00 NAtFMM=   60 NAOKFM=F Big=F
 Integral buffers will be    131072 words long.
 Raffenetti 2 integral format.
 Two-electron integral symmetry is turned off.
 One-electron integrals computed using PRISM.
   1 Symmetry operations used in ECPInt.
 ECPInt:  NShTT=    9591 NPrTT=   29644 LenC2=    9323 LenP2D=   22665.
 LDataN:  DoStor=T MaxTD1= 6 Len=  172
 NBasis=   352 RedAO= T EigKep=  3.88D-05  NBF=   352
 NBsUse=   352 1.00D-06 EigRej= -1.00D+00 NBFU=   352
 The nuclear repulsion energy is now       475.8302512267 hartrees.
 Initial guess from the checkpoint file:  "checkpoint.chk"
 B after Tr=     0.001051    0.001965    0.000116
         Rot=    0.999999   -0.000327    0.000155    0.000936 Ang=  -0.12 deg.
 Requested convergence on RMS density matrix=1.00D-08 within 128 cycles.
 Requested convergence on MAX density matrix=1.00D-06.
 Requested convergence on             energy=1.00D-06.
 No special actions if energy rises.
 SCF Done:  E(RB3LYP) =  -439.149314127     A.U. after    9 cycles
            NFock=  9  Conv=0.79D-08     -V/T= 2.0050
   1 Symmetry operations used in ECPInt.
 ECPInt:  NShTT=    9591 NPrTT=   29644 LenC2=    9323 LenP2D=   22665.
 LDataN:  DoStor=T MaxTD1= 7 Len=  274
 Calling FoFJK, ICntrl=      2127 FMM=F ISym2X=0 I1Cent= 0 IOpClX= 0 NMat=1 NMatS=1 NMatT=0.
 -------------------------------------------------------------------
 Center     Atomic                   Forces (Hartrees/Bohr)
 Number     Number              X              Y              Z
 -------------------------------------------------------------------
      1        6          -0.000976312    0.003956263   -0.000001262
      2        6           0.000976775   -0.002567133    0.000000789
      3        6          -0.000006490   -0.001383056    0.000003222
      4        1          -0.000000480   -0.000001841   -0.000000052
      5        8           0.000004233   -0.000004754    0.000001197
      6        6           0.000001436   -0.000000405    0.000000035
      7        1           0.000000203    0.000001037   -0.000000067
      8        6          -0.000002751    0.000005159   -0.000000815
      9        1          -0.000000010    0.000000651   -0.000000087
     10        6           0.000001095   -0.000001767   -0.000006515
     11        7           0.000000534   -0.000003560    0.000002138
     12        1          -0.000000171    0.000000073   -0.000000127
     13        6          -0.000001753   -0.000007245   -0.000005864
     14        6           0.000004068    0.000006404    0.000007737
     15        1           0.000000180   -0.000000476   -0.000000072
     16        1          -0.000000485    0.000000248   -0.000000475
     17        1          -0.000000071    0.000000402    0.000000220
 -------------------------------------------------------------------
 Cartesian Forces:  Max     0.003956263 RMS     0.000714866
 -----------------------------------------------------------------------------------------------
                       Internal Coordinate Forces (Hartree/Bohr or radian)
  Cent   Atom   N1       Length/X         N2         Alpha/Y        N3         Beta/Z          J
 -----------------------------------------------------------------------------------------------
      1  C 
      2  C        1  -0.000003(     1)
      3  C        1  -0.000005(     2)      2  -0.000015(    17)
      4  H        1  -0.000000(     3)      2   0.000000(    18)      3  -0.000003(    32)     0
      5  O        3   0.000000(     4)      1   0.000010(    19)      2  -0.000006(    33)     0
      6  C        2  -0.000001(     5)      1  -0.000010(    20)      3  -0.000013(    34)     0
      7  H        2  -0.000000(     6)      1  -0.000000(    21)      6  -0.000002(    35)     0
      8  C        6   0.000002(     7)      2   0.000001(    22)      1  -0.000003(    36)     0
      9  H        6  -0.000000(     8)      2  -0.000000(    23)      8  -0.000001(    37)     0
     10  C        8   0.000015(     9)      6  -0.000039(    24)      2   0.000008(    38)     0
     11  N        8   0.000009(    10)      6  -0.000045(    25)     10   0.000012(    39)     0
     12  H       10   0.000000(    11)      8   0.000000(    26)      6   0.000008(    40)     0
     13  C       10  -0.000002(    12)      8   0.000025(    27)     12   0.000007(    41)     0
     14  C       11  -0.000003(    13)      8   0.000029(    28)      6   0.000005(    42)     0
     15  H       11  -0.000000(    14)      8   0.000000(    29)     14   0.000001(    43)     0
     16  H       13   0.000000(    15)     10  -0.000001(    30)      8   0.000001(    44)     0
     17  H       14   0.000000(    16)     11  -0.000001(    31)      8  -0.000000(    45)     0
 -----------------------------------------------------------------------------------------------
 Internal  Forces:  Max     0.000044661 RMS     0.000011815

 GradGradGradGradGradGradGradGradGradGradGradGradGradGradGradGradGradGrad
 Berny optimization.
 Search for a saddle point.
 Step number   3 out of a maximum of   55
 All quantities printed in internal units (Hartrees-Bohrs-Radians)
 Swapping is turned off.
 Update second derivatives using D2CorN and points    1    2    3
 ITU=  0  0  0
     Eigenvalues ---   -0.16474   0.01608   0.01925   0.02214   0.02940
     Eigenvalues ---    0.04532   0.04928   0.05063   0.06406   0.07349
     Eigenvalues ---    0.10505   0.13718   0.15563   0.15927   0.16731
     Eigenvalues ---    0.18945   0.19165   0.19614   0.22103   0.25135
     Eigenvalues ---    0.29874   0.32088   0.33591   0.34339   0.34967
     Eigenvalues ---    0.35463   0.35732   0.36018   0.37165   0.37313
     Eigenvalues ---    0.37591   0.39141   0.40731   0.45911   0.46727
     Eigenvalues ---    0.48669   0.51187   0.57337   0.61231   0.75562
     Eigenvalues ---    0.87162   1.48464   1.92243   2.05294  25.19005
 Eigenvectors required to have negative eigenvalues:
                          A5        D12       A8        D13       A3
   1                    0.63677   0.32258   0.29781  -0.25499   0.21401
                          R3        A10       A11       A12       A6
   1                   -0.21209   0.17408  -0.16728   0.15867   0.13554
 RFO step:  Lambda0=1.599773924D-10 Lambda= 0.00000000D+00.
 Linear search not attempted -- option 19 set.
 Variable       Old X    -DE/DX   Delta X   Delta X   Delta X     New X
                                 (Linear)    (Quad)   (Total)
    R2        2.70205  -0.00000   0.00000  -0.00001  -0.00001   2.70204
    R3        2.57834  -0.00000   0.00000   0.00001   0.00001   2.57835
    R4        2.05618  -0.00000   0.00000   0.00000   0.00000   2.05618
    R5        2.23539   0.00000   0.00000   0.00000   0.00000   2.23539
    R6        2.56772  -0.00000   0.00000   0.00001   0.00001   2.56772
    R7        2.04824  -0.00000   0.00000  -0.00000  -0.00000   2.04824
    R8        2.69147   0.00000   0.00000  -0.00002  -0.00002   2.69145
    R9        2.04440  -0.00000   0.00000   0.00000   0.00000   2.04440
   R10        2.66896   0.00001   0.00000   0.00002   0.00002   2.66897
   R11        2.56665   0.00001   0.00000   0.00000   0.00000   2.56665
   R12        2.04391   0.00000   0.00000   0.00000   0.00000   2.04391
   R13        2.71631  -0.00000   0.00000   0.00000   0.00000   2.71631
   R14        2.61575  -0.00000   0.00000  -0.00000  -0.00000   2.61575
   R15        1.90369  -0.00000   0.00000   0.00000   0.00000   1.90369
   R16        2.03461   0.00000   0.00000  -0.00000  -0.00000   2.03461
   R17        2.03502   0.00000   0.00000   0.00000   0.00000   2.03502
    A3        2.25063  -0.00002   0.00000  -0.00002  -0.00002   2.25062
    A4        2.04675   0.00000   0.00000  -0.00000  -0.00000   2.04675
    A5        2.55682   0.00001   0.00000  -0.00000  -0.00000   2.55681
    A6        2.21865  -0.00001   0.00000  -0.00001  -0.00001   2.21864
    A7        2.01015  -0.00000   0.00000   0.00001   0.00001   2.01016
    A8        2.07753   0.00000   0.00000   0.00001   0.00001   2.07754
    A9        2.10095  -0.00000   0.00000  -0.00000  -0.00000   2.10094
   A10        2.20541  -0.00004   0.00000   0.00001   0.00001   2.20542
   A11        2.20186  -0.00004   0.00000  -0.00000  -0.00000   2.20185
   A12        2.11721   0.00000   0.00000  -0.00002  -0.00002   2.11720
   A13        1.86360   0.00003   0.00000  -0.00000  -0.00000   1.86359
   A14        1.92633   0.00003   0.00000   0.00000   0.00000   1.92634
   A15        2.17933   0.00000   0.00000   0.00000   0.00000   2.17933
   A16        2.21317  -0.00000   0.00000  -0.00000  -0.00000   2.21316
   A17        2.10510  -0.00000   0.00000  -0.00000  -0.00000   2.10510
    D4       -2.83635  -0.00000   0.00000   0.00006   0.00006  -2.83629
    D5        3.16219  -0.00001   0.00000  -0.00001  -0.00001   3.16217
    D6       -0.05513  -0.00001   0.00000  -0.00015  -0.00015  -0.05528
    D7        3.08493  -0.00000   0.00000  -0.00000  -0.00000   3.08493
    D8       -0.01652  -0.00000   0.00000  -0.00001  -0.00001  -0.01652
    D9        3.04074  -0.00000   0.00000  -0.00001  -0.00001   3.04072
   D10       -0.45273   0.00001   0.00000   0.00010   0.00010  -0.45263
   D11        2.99392   0.00001   0.00000   0.00009   0.00009   2.99401
   D12       -0.68012   0.00001   0.00000  -0.00001  -0.00001  -0.68012
   D13       -2.58315   0.00001   0.00000   0.00006   0.00006  -2.58309
   D14       -3.01864   0.00000   0.00000  -0.00005  -0.00005  -3.01869
   D15        3.07672   0.00000   0.00000  -0.00001  -0.00001   3.07671
   D16        3.08583   0.00000   0.00000   0.00003   0.00003   3.08586
   D17        3.16090  -0.00000   0.00000  -0.00003  -0.00003   3.16088
         Item               Value     Threshold  Converged?
 Maximum Force            0.000045     0.000450     YES
 RMS     Force            0.000012     0.000300     YES
 Maximum Displacement     0.000151     0.001800     YES
 RMS     Displacement     0.000035     0.001200     YES
 Predicted change in Energy=-2.091850D-09
 Optimization completed.
    -- Stationary point found.
                       ----------------------------
                       !   Optimized Parameters   !
                       ! (Angstroms and Degrees)  !
 ----------------------                            ----------------------
 !      Name          Value   Derivative information (Atomic Units)     !
 ------------------------------------------------------------------------
 !       R2          1.4299   -DE/DX =    0.0                           !
 !       R3          1.3644   -DE/DX =    0.0                           !
 !       R4          1.0881   -DE/DX =    0.0                           !
 !       R5          1.1829   -DE/DX =    0.0                           !
 !       R6          1.3588   -DE/DX =    0.0                           !
 !       R7          1.0839   -DE/DX =    0.0                           !
 !       R8          1.4243   -DE/DX =    0.0                           !
 !       R9          1.0819   -DE/DX =    0.0                           !
 !       R10         1.4124   -DE/DX =    0.0                           !
 !       R11         1.3582   -DE/DX =    0.0                           !
 !       R12         1.0816   -DE/DX =    0.0                           !
 !       R13         1.4374   -DE/DX =    0.0                           !
 !       R14         1.3842   -DE/DX =    0.0                           !
 !       R15         1.0074   -DE/DX =    0.0                           !
 !       R16         1.0767   -DE/DX =    0.0                           !
 !       R17         1.0769   -DE/DX =    0.0                           !
 !       A3        128.9518   -DE/DX =    0.0                           !
 !       A4        117.2701   -DE/DX =    0.0                           !
 !       A5        146.4949   -DE/DX =    0.0                           !
 !       A6        127.1192   -DE/DX =    0.0                           !
 !       A7        115.1732   -DE/DX =    0.0                           !
 !       A8        119.0336   -DE/DX =    0.0                           !
 !       A9        120.3754   -DE/DX =    0.0                           !
 !       A10       126.3609   -DE/DX =    0.0                           !
 !       A11       126.157    -DE/DX =    0.0                           !
 !       A12       121.3074   -DE/DX =    0.0                           !
 !       A13       106.7763   -DE/DX =    0.0                           !
 !       A14       110.3707   -DE/DX =    0.0                           !
 !       A15       124.8664   -DE/DX =    0.0                           !
 !       A16       126.805    -DE/DX =    0.0                           !
 !       A17       120.6133   -DE/DX =    0.0                           !
 !       D4       -162.5109   -DE/DX =    0.0                           !
 !       D5        181.1799   -DE/DX =    0.0                           !
 !       D6         -3.1589   -DE/DX =    0.0                           !
 !       D7        176.7537   -DE/DX =    0.0                           !
 !       D8         -0.9463   -DE/DX =    0.0                           !
 !       D9        174.2213   -DE/DX =    0.0                           !
 !       D10       -25.9397   -DE/DX =    0.0                           !
 !       D11       171.539    -DE/DX =    0.0                           !
 !       D12       -38.9678   -DE/DX =    0.0                           !
 !       D13      -148.0039   -DE/DX =    0.0                           !
 !       D14      -172.9552   -DE/DX =    0.0                           !
 !       D15       176.2829   -DE/DX =    0.0                           !
 !       D16       176.805    -DE/DX =    0.0                           !
 !       D17       181.1064   -DE/DX =    0.0                           !
 ------------------------------------------------------------------------
 GradGradGradGradGradGradGradGradGradGradGradGradGradGradGradGradGradGrad

 ---------------------------------------------------------------------------------------------------
                            Z-MATRIX (ANGSTROMS AND DEGREES)
   CD    Cent   Atom    N1       Length/X        N2       Alpha/Y        N3        Beta/Z          J
 ---------------------------------------------------------------------------------------------------
      1      1  C 
      2      2  C        1   1.429863(     1)
      3      3  C        1   1.364397(     2)      2  128.952(    17)
      4      4  H        1   1.088085(     3)      2  117.270(    18)      3 -162.511(    32)      0
      5      5  O        3   1.182917(     4)      1  146.495(    19)      2  181.180(    33)      0
      6      6  C        2   1.358777(     5)      1  127.119(    20)      3   -3.159(    34)      0
      7      7  H        2   1.083880(     6)      1  115.173(    21)      6  176.754(    35)      0
      8      8  C        6   1.424264(     7)      2  119.034(    22)      1   -0.946(    36)      0
      9      9  H        6   1.081852(     8)      2  120.375(    23)      8  174.221(    37)      0
     10     10  C        8   1.412350(     9)      6  126.361(    24)      2  -25.940(    38)      0
     11     11  N        8   1.358212(    10)      6  126.157(    25)     10  171.539(    39)      0
     12     12  H       10   1.081591(    11)      8  121.307(    26)      6  -38.968(    40)      0
     13     13  C       10   1.437409(    12)      8  106.776(    27)     12 -148.004(    41)      0
     14     14  C       11   1.384197(    13)      8  110.371(    28)      6 -172.955(    42)      0
     15     15  H       11   1.007392(    14)      8  124.866(    29)     14  176.283(    43)      0
     16     16  H       13   1.076669(    15)     10  126.805(    30)      8  176.805(    44)      0
     17     17  H       14   1.076887(    16)     11  120.613(    31)      8  181.106(    45)      0
 ---------------------------------------------------------------------------------------------------
                         Z-Matrix orientation:                         
 ---------------------------------------------------------------------
 Center     Atomic      Atomic             Coordinates (Angstroms)
 Number     Number       Type             X           Y           Z
 ---------------------------------------------------------------------
      1          6           0        0.000000    0.000000    0.000000
      2          6           0        0.000000    0.000000    1.429863
      3          6           0        1.061058    0.000000   -0.857750
      4          1           0       -0.922444    0.290653   -0.498545
      5          8           0        1.417704    0.013446   -1.985542
      6          6           0        1.081818   -0.059705    2.249850
      7          1           0       -0.974816    0.109433    1.890899
      8          6           0        2.381273   -0.152019    1.674156
      9          1           0        0.964864    0.056215    3.319097
     10          6           0        2.699498   -0.688103    0.406844
     11          7           0        3.518402    0.401324    2.169625
     12          1           0        2.200045   -1.569459    0.027904
     13          6           0        4.094300   -0.422868    0.182516
     14          6           0        4.561374    0.243154    1.273415
     15          1           0        3.581324    0.907953    3.038076
     16          1           0        4.682255   -0.734883   -0.663752
     17          1           0        5.547115    0.606908    1.509386
 ---------------------------------------------------------------------
                    Distance matrix (angstroms):
                    1          2          3          4          5
     1  C    0.000000
     2  C    1.429863   0.000000
     3  C    1.364397   2.521709   0.000000
     4  H    1.088085   2.157345   2.036612   0.000000
     5  O    2.439763   3.697980   1.182917   2.786449   0.000000
     6  C    2.497143   1.358777   3.108243   3.419575   4.249320
     7  H    2.130197   1.083880   3.422255   2.396878   4.556332
     8  C    2.914853   2.398593   2.859480   3.978836   3.788038
     9  H    3.456953   2.122104   4.178333   4.265124   5.324105
    10  C    2.815368   2.967717   2.181093   3.859554   2.803333
    11  N    4.153010   3.617660   3.919770   5.181939   4.672130
    12  H    2.702624   3.044485   2.131871   3.672479   2.677986
    13  C    4.120124   4.300928   3.234428   5.112795   3.472032
    14  C    4.742029   4.570529   4.105264   5.763190   4.533897
    15  H    4.783322   4.029468   4.727957   5.759572   5.542394
    16  H    4.785826   5.181389   3.700102   5.700146   3.600613
    17  H    5.780750   5.580784   5.108461   6.781372   5.442311
                    6          7          8          9         10
     6  C    0.000000
     7  H    2.094565   0.000000
     8  C    1.424264   3.373229   0.000000
     9  H    1.081852   2.409345   2.180690   0.000000
    10  C    2.531491   4.042161   1.412350   3.470473   0.000000
    11  N    2.481114   4.511308   1.358212   2.821514   2.228195
    12  H    2.909782   4.045883   2.179937   3.873040   1.081591
    13  C    3.671621   5.375672   2.287533   4.456571   1.437409
    14  C    3.626632   5.572124   2.251576   4.141817   2.254943
    15  H    2.793777   4.765718   2.103317   2.765917   3.201311
    16  H    4.680608   6.264309   3.331676   5.505263   2.253817
    17  H    4.575100   6.551994   3.259705   4.957353   3.316862
                   11         12         13         14         15
    11  N    0.000000
    12  H    3.195156   0.000000
    13  C    2.227006   2.219635   0.000000
    14  C    1.384197   3.226878   1.360810   0.000000
    15  H    1.007392   4.136017   3.191935   2.125202   0.000000
    16  H    3.267040   2.708556   1.076669   2.173427   4.196962
    17  H    2.143329   4.258432   2.220742   1.076887   2.508357
                   16         17
    16  H    0.000000
    17  H    2.696463   0.000000
 Symmetry turned off by external request.
 Stoichiometry    C8H7NO
 Framework group  C1[X(C8H7NO)]
 Deg. of freedom    45
 Full point group                 C1      NOp   1
 Rotational constants (GHZ):           2.1696189           1.3211811           0.8601512
 1\1\GINC-BHC0108\FTS\RB3LYP\def2TZVP\C8H7N1O1\DHANAWAY\10-Jun-2022\1\\
 # Opt=(TS, CalcFC, noeigentest, Z-matrix, MaxStep=10) geom=allcheckpoi
 nt guess=read Field=read NoSymm B3LYP/Def2TZVP freq=noraman pop=none\\
 ts_zmat_initalOpt\\0,1\C\C,1,R2\C,1,R3,2,A3\H,1,R4,2,A4,3,D4,0\O,3,R5,
 1,A5,2,D5,0\C,2,R6,1,A6,3,D6,0\H,2,R7,1,A7,6,D7,0\C,6,R8,2,A8,1,D8,0\H
 ,6,R9,2,A9,8,D9,0\C,8,R10,6,A10,2,D10,0\N,8,R11,6,A11,10,D11,0\H,10,R1
 2,8,A12,6,D12,0\C,10,R13,8,A13,12,D13,0\C,11,R14,8,A14,6,D14,0\H,11,R1
 5,8,A15,14,D15,0\H,13,R16,10,A16,8,D16,0\H,14,R17,11,A17,8,D17,0\\R2=1
 .42986298\R3=1.36439712\R4=1.08808496\R5=1.18291705\R6=1.35877703\R7=1
 .08388035\R8=1.42426417\R9=1.08185224\R10=1.41235031\R11=1.35821245\R1
 2=1.08159073\R13=1.43740867\R14=1.38419687\R15=1.00739189\R16=1.076668
 59\R17=1.07688679\A3=128.95175977\A4=117.27009873\A5=146.49488574\A6=1
 27.11915115\A7=115.17324509\A8=119.03358989\A9=120.37544255\A10=126.36
 086224\A11=126.15700986\A12=121.30736137\A13=106.77627222\A14=110.3707
 1067\A15=124.86635712\A16=126.80502719\A17=120.61325807\D4=-162.510895
 45\D5=181.17987579\D6=-3.15891951\D7=176.75370157\D8=-0.94630831\D9=17
 4.22128845\D10=-25.93971321\D11=171.53900567\D12=-38.96777315\D13=-148
 .00386466\D14=-172.95518522\D15=176.28291495\D16=176.80500427\D17=181.
 10637234\\Version=ES64L-G16RevA.03\HF=-439.1493141\RMSD=7.860e-09\RMSF
 =7.149e-04\Dipole=1.1954208,0.247327,2.2342407\PG=C01 [X(C8H7N1O1)]\\@


 MYSTERY IS THE WISDOM OF BLOCKHEADS... HORACE WALPOLE 
 Job cpu time:       0 days  2 hours 54 minutes 58.5 seconds.
 Elapsed time:       0 days  0 hours 14 minutes 36.7 seconds.
 File lengths (MBytes):  RWF=    180 Int=      0 D2E=      0 Chk=     32 Scr=      1
 Normal termination of Gaussian 16 at Fri Jun 10 04:09:56 2022.
 Link1:  Proceeding to internal job step number  2.
 --------------------------------------------------------------------
 #N Geom=AllCheck Guess=TCheck SCRF=Check GenChk RB3LYP/def2TZVP Freq
 --------------------------------------------------------------------
 1/5=1,8=10,10=4,11=1,29=7,30=1,38=1,40=1/1,3;
 2/12=2,15=1,40=1/2;
 3/5=44,7=101,11=2,14=-4,25=1,30=1,70=2,71=2,74=-5,116=1,140=1/1,2,3;
 4/5=101/1;
 5/5=2,38=6,98=1/2;
 8/6=4,10=90,11=11/1;
 11/6=1,8=1,9=11,15=111,16=1,31=1/1,2,10;
 10/6=1,31=1/2;
 7/8=1,10=1,25=1,30=1/1,2,3,16;
 1/5=1,8=10,10=4,11=1,30=1/3;
 99//99;
 Structure from the checkpoint file:  "checkpoint.chk"
 -----------------
 ts_zmat_initalOpt
 -----------------
 Charge =  0 Multiplicity = 1
 Z-Matrix found in chk file.
 C
 C,1,R2
 C,1,R3,2,A3
 H,1,R4,2,A4,3,D4,0
 O,3,R5,1,A5,2,D5,0
 C,2,R6,1,A6,3,D6,0
 H,2,R7,1,A7,6,D7,0
 C,6,R8,2,A8,1,D8,0
 H,6,R9,2,A9,8,D9,0
 C,8,R10,6,A10,2,D10,0
 N,8,R11,6,A11,10,D11,0
 H,10,R12,8,A12,6,D12,0
 C,10,R13,8,A13,12,D13,0
 C,11,R14,8,A14,6,D14,0
 H,11,R15,8,A15,14,D15,0
 H,13,R16,10,A16,8,D16,0
 H,14,R17,11,A17,8,D17,0
      Variables:
 R2=1.42986298
 R3=1.36439712
 R4=1.08808496
 R5=1.18291705
 R6=1.35877703
 R7=1.08388035
 R8=1.42426417
 R9=1.08185224
 R10=1.41235031
 R11=1.35821245
 R12=1.08159073
 R13=1.43740867
 R14=1.38419687
 R15=1.00739189
 R16=1.07666859
 R17=1.07688679
 A3=128.95175977
 A4=117.27009873
 A5=146.49488574
 A6=127.11915115
 A7=115.17324509
 A8=119.03358989
 A9=120.37544255
 A10=126.36086224
 A11=126.15700986
 A12=121.30736137
 A13=106.77627222
 A14=110.37071067
 A15=124.86635712
 A16=126.80502719
 A17=120.61325807
 D4=-162.51089545
 D5=181.17987579
 D6=-3.15891951
 D7=176.75370157
 D8=-0.94630831
 D9=174.22128845
 D10=-25.93971321
 D11=171.53900567
 D12=-38.96777315
 D13=-148.00386466
 D14=-172.95518522
 D15=176.28291495
 D16=176.80500427
 D17=181.10637234
 Recover connectivity data from disk.

 GradGradGradGradGradGradGradGradGradGradGradGradGradGradGradGradGradGrad
 Berny optimization.
 Initialization pass.
                       ----------------------------
                       !    Initial Parameters    !
                       ! (Angstroms and Degrees)  !
 ----------------------                            ----------------------
 !      Name          Value   Derivative information (Atomic Units)     !
 ------------------------------------------------------------------------
 !       R2          1.4299   calculate D2E/DX2 analytically            !
 !       R3          1.3644   calculate D2E/DX2 analytically            !
 !       R4          1.0881   calculate D2E/DX2 analytically            !
 !       R5          1.1829   calculate D2E/DX2 analytically            !
 !       R6          1.3588   calculate D2E/DX2 analytically            !
 !       R7          1.0839   calculate D2E/DX2 analytically            !
 !       R8          1.4243   calculate D2E/DX2 analytically            !
 !       R9          1.0819   calculate D2E/DX2 analytically            !
 !       R10         1.4124   calculate D2E/DX2 analytically            !
 !       R11         1.3582   calculate D2E/DX2 analytically            !
 !       R12         1.0816   calculate D2E/DX2 analytically            !
 !       R13         1.4374   calculate D2E/DX2 analytically            !
 !       R14         1.3842   calculate D2E/DX2 analytically            !
 !       R15         1.0074   calculate D2E/DX2 analytically            !
 !       R16         1.0767   calculate D2E/DX2 analytically            !
 !       R17         1.0769   calculate D2E/DX2 analytically            !
 !       A3        128.9518   calculate D2E/DX2 analytically            !
 !       A4        117.2701   calculate D2E/DX2 analytically            !
 !       A5        146.4949   calculate D2E/DX2 analytically            !
 !       A6        127.1192   calculate D2E/DX2 analytically            !
 !       A7        115.1732   calculate D2E/DX2 analytically            !
 !       A8        119.0336   calculate D2E/DX2 analytically            !
 !       A9        120.3754   calculate D2E/DX2 analytically            !
 !       A10       126.3609   calculate D2E/DX2 analytically            !
 !       A11       126.157    calculate D2E/DX2 analytically            !
 !       A12       121.3074   calculate D2E/DX2 analytically            !
 !       A13       106.7763   calculate D2E/DX2 analytically            !
 !       A14       110.3707   calculate D2E/DX2 analytically            !
 !       A15       124.8664   calculate D2E/DX2 analytically            !
 !       A16       126.805    calculate D2E/DX2 analytically            !
 !       A17       120.6133   calculate D2E/DX2 analytically            !
 !       D4       -162.5109   calculate D2E/DX2 analytically            !
 !       D5        181.1799   calculate D2E/DX2 analytically            !
[...]
   zz         0.135538D+03      0.200847D+02      0.223472D+02

 ----------------------------------------------------------------------
 1\1\GINC-BHC0108\Freq\RB3LYP\def2TZVP\C8H7N1O1\DHANAWAY\10-Jun-2022\1\
 \#N Geom=AllCheck Guess=TCheck SCRF=Check GenChk RB3LYP/def2TZVP Freq\
 \ts_zmat_initalOpt\\0,1\C\C,1,R2\C,1,R3,2,A3\H,1,R4,2,A4,3,D4,0\O,3,R5
 ,1,A5,2,D5,0\C,2,R6,1,A6,3,D6,0\H,2,R7,1,A7,6,D7,0\C,6,R8,2,A8,1,D8,0\
 H,6,R9,2,A9,8,D9,0\C,8,R10,6,A10,2,D10,0\N,8,R11,6,A11,10,D11,0\H,10,R
 12,8,A12,6,D12,0\C,10,R13,8,A13,12,D13,0\C,11,R14,8,A14,6,D14,0\H,11,R
 15,8,A15,14,D15,0\H,13,R16,10,A16,8,D16,0\H,14,R17,11,A17,8,D17,0\\R2=
 1.42986298\R3=1.36439712\R4=1.08808496\R5=1.18291705\R6=1.35877703\R7=
 1.08388035\R8=1.42426417\R9=1.08185224\R10=1.41235031\R11=1.35821245\R
 12=1.08159073\R13=1.43740867\R14=1.38419687\R15=1.00739189\R16=1.07666
 859\R17=1.07688679\A3=128.95175977\A4=117.27009873\A5=146.49488574\A6=
 127.11915115\A7=115.17324509\A8=119.03358989\A9=120.37544255\A10=126.3
 6086224\A11=126.15700986\A12=121.30736137\A13=106.77627222\A14=110.370
 71067\A15=124.86635712\A16=126.80502719\A17=120.61325807\D4=-162.51089
 545\D5=181.17987579\D6=-3.15891951\D7=176.75370157\D8=-0.94630831\D9=1
 74.22128845\D10=-25.93971321\D11=171.53900567\D12=-38.96777315\D13=-14
 8.00386466\D14=-172.95518522\D15=176.28291495\D16=176.80500427\D17=181
 .10637234\\Version=ES64L-G16RevA.03\HF=-439.1493141\RMSD=2.824e-09\RMS
 F=7.149e-04\ZeroPoint=0.1299648\Thermal=0.1375892\Dipole=1.1954218,0.2
 473241,2.2342368\DipoleDeriv=-0.3399156,-0.0675608,0.4371201,-0.098800
 3,-0.3034022,-0.0679716,-0.2561273,-0.0122644,-0.7928059,0.1457179,-0.
 0075527,0.0718814,0.0866932,-0.1035354,-0.0565425,0.306847,0.0046701,0
 .6065985,1.0031394,-0.0660078,-0.1831596,-0.1703971,0.1801716,-0.02499
 72,0.4934576,-0.2304297,2.5775756,-0.1608613,0.0617757,-0.1383107,0.06
 59639,0.1538463,0.0448476,-0.0355923,0.0311986,0.0028577,-0.4053241,0.
 0067332,0.3283485,0.0842221,-0.2402337,-0.020435,-0.2635506,0.1747218,
 -2.2448533,-0.2774444,-0.0554184,-0.176672,0.0583336,-0.2073944,0.0255
 688,-0.0998801,0.02983,-0.1559765,-0.0892512,0.0194604,0.0738356,-0.01
 03509,0.1224352,0.0024569,0.0614496,-0.0063817,0.0489527,0.481322,0.10
 4276,0.1694306,0.2728308,0.1229281,0.2791874,0.3662648,0.1070662,0.357
 1868,0.0386943,0.0027941,0.0059163,-0.0215604,0.1573594,-0.0212767,0.0
 224062,-0.0218619,-0.030618,-0.1767561,0.0400793,-0.4250553,0.080671,-
 0.0629973,0.0723848,-0.3822953,-0.0494866,-0.6297958,-0.4805711,0.0402
 467,-0.1525406,-0.2074509,-0.2288171,-0.1601789,-0.2620331,-0.1599893,
 -0.4093604,0.0854918,-0.0389507,0.0441768,-0.1132581,0.0805651,-0.1127
 737,0.0471354,-0.0070368,0.1609077,-0.0494912,0.0172795,0.0236537,0.04
 22979,-0.1886638,0.1010725,-0.1222538,0.0750999,-0.0838867,-0.0452339,
 -0.0249973,-0.192756,-0.039015,-0.0506512,0.030919,-0.0286597,0.167934
 6,0.1563669,0.1800235,-0.0030641,0.0657895,0.0116939,0.2766051,-0.0175
 619,0.0827891,-0.0071028,0.3006687,0.0308854,0.0067664,0.0447178,-0.00
 32592,0.1328097,-0.0429556,0.0724973,-0.0487438,0.0393969,0.0595746,-0
 .0358596,0.0036239,-0.0386147,0.1589745,-0.031744,-0.0024548,-0.047224
 3,0.0967851\Polar=141.4174755,0.566345,62.5599642,10.2335754,5.4691132
 ,122.5206656\PG=C01 [X(C8H7N1O1)]\NImag=1\\0.57713056,-0.09361230,0.10
 445139,-0.03775017,-0.03248157,0.66358407,-0.10231840,0.00542705,0.015
 90447,0.73411884,0.00803884,-0.04716533,-0.00308096,-0.05612075,0.1352
 1434,-0.04119837,0.00811036,-0.26367116,0.04746661,-0.00148107,0.63022
 129,-0.19523111,0.02170448,0.10193875,0.00797670,-0.00179986,0.0812766
 0,0.31941002,0.00376599,-0.04732010,-0.00131956,0.00276370,-0.00679448
 ,-0.00415758,-0.00009668,0.11550272,0.15240970,-0.01682616,-0.20159895
 ,0.03604541,0.00591131,-0.02588776,-0.44679906,0.00795903,0.94880386,-
 0.24444723,0.06371876,-0.10172399,0.00175187,-0.00023154,-0.00214437,-
 0.02103599,0.00885808,-0.00389306,0.26306945,0.07452146,-0.04064406,0.
 03579951,0.00117545,0.00060478,-0.00079261,-0.00424067,0.00175343,0.00
 535567,-0.07186931,0.03580865,-0.09692100,0.03427487,-0.10327291,-0.02
 749346,0.00832259,-0.01181572,0.01044980,-0.00451315,0.00294759,0.1093
 9062,-0.03770599,0.11360101,-0.02040430,-0.00484718,0.05883633,-0.0041
 9545,0.00159344,-0.02092202,-0.11264516,-0.00342256,0.22527617,0.00199
 545,0.00088629,0.00034928,0.13348066,-0.00190865,0.01456191,0.00552574
 ,-0.00246883,0.00720752,-0.00210299,-0.00135908,-0.05206132,0.00352420
 ,-0.00143287,-0.00151320,0.00021468,0.00033215,0.03098400,0.02401151,0
 .00790823,-0.03891439,-0.00560964,-0.00455623,0.00206291,0.26114551,0.
 00258353,-0.72423773,-0.00338220,-0.00158370,0.00213139,-0.25633434,-0
 .01551163,0.78822552,0.02581813,0.00164561,-0.04323124,-0.30482059,0.0
 2604862,-0.11968870,-0.04271653,-0.00058639,-0.00237927,0.00330068,-0.
 00357764,0.00012370,0.01036398,0.00397558,0.00703335,0.65929796,-0.004
 70006,0.00892741,0.00818456,0.01029959,-0.05649920,-0.00728429,0.00852
 303,0.00189366,-0.00058985,0.00087869,0.00256544,0.00079955,-0.0025034
 5,-0.00122362,-0.00115341,-0.02268653,0.11979220,-0.01683629,0.0000771
 9,-0.04245002,-0.16719396,0.00479224,-0.22131274,-0.02297850,0.0024472
 6,0.00619225,0.00182696,0.00189998,-0.00437223,0.00652434,-0.00139156,
 -0.00500644,0.05321019,0.05082940,0.72760049,0.00127464,0.00000890,-0.
 00231214,-0.27771437,0.02812591,0.10567726,0.00104165,0.00028447,-0.00
 123798,0.00089489,-0.00037064,0.00014996,0.00003739,-0.00006848,0.0003
 3535,-0.02137601,0.00298717,0.01223798,0.29763751,0.00296268,0.0026351
 2,-0.00449967,0.02893277,-0.04071865,-0.00949741,-0.00472441,0.0042538
 3,0.00195815,-0.00116824,-0.00158531,-0.00019997,0.00148958,-0.0008283
 5,0.00004725,0.00111581,0.00479792,-0.00252941,-0.03075854,0.02837253,
 0.02686816,-0.00327268,-0.01136545,0.10629776,-0.01238831,-0.10768024,
 -0.00035097,-0.00001548,-0.00706303,-0.00011985,0.00019543,0.00093384,
 0.00109522,0.00000369,0.00024201,-0.01814413,0.00238373,0.01062711,-0.
 11176745,0.01293348,0.11437274,-0.01619907,-0.00278827,0.02258729,-0.0
 6318714,-0.00294845,-0.02744228,0.03126930,0.00031181,-0.00136958,-0.0
 0183059,0.00218598,0.00209041,-0.00967942,-0.00195342,-0.00281999,-0.2
 2706843,0.01027065,0.08835505,-0.00209166,0.00149475,-0.00324771,0.734
 08428,0.00822202,-0.00453504,-0.00332003,0.00348820,0.00388473,0.01073
 349,-0.01939712,-0.00203664,-0.00868990,0.00198972,0.00145363,-0.00040
 942,0.00629543,0.00017441,0.01098340,0.00027964,-0.06089596,-0.0210038
 5,0.00013519,0.00931038,-0.00049275,0.06664417,0.26824536,0.01658136,-
 0.00120521,-0.01295471,-0.00580623,0.00512736,0.03947511,-0.04728808,0
 .00542112,-0.02611867,0.00356127,-0.00113857,-0.00216149,0.01039262,0.
 00015012,0.01468944,0.05988294,-0.02039237,-0.14938017,-0.00399353,0.0
 0034559,-0.00207510,-0.09967376,0.16787104,0.54283984,-0.00183602,0.00
 104209,-0.00189055,0.00546040,-0.00287051,-0.02695092,-0.00339932,0.00
 044617,-0.00095818,0.00020144,0.00024604,-0.00112631,0.00097009,-0.000
 10165,0.00023582,-0.06168712,0.00373333,0.03373303,0.00105352,-0.00072
 393,0.00008344,0.00104484,0.00428189,0.02871009,0.06118645,0.00189447,
 0.00794823,-0.00102246,0.00386377,0.00195681,0.00485721,-0.00343782,0.
 00021049,-0.00177462,0.00018744,0.00032977,-0.00080838,0.00077644,-0.0
 0008858,0.00164632,-0.00442899,-0.02927155,-0.03337176,-0.00056288,-0.
 00594552,0.00043192,0.00705107,-0.00047074,-0.00672673,-0.00597797,0.0
 2424199,-0.00270396,-0.00044991,0.00183279,0.00237065,-0.00179383,-0.0
 1620996,0.00074364,-0.00019227,0.00029342,0.00005537,-0.00005097,-0.00
 055430,-0.00009201,0.00009063,-0.00007367,0.03225227,-0.03300769,-0.33
 078145,0.00001543,0.00075290,0.00100076,-0.00105902,-0.00163453,-0.007
 61281,-0.03339758,0.03535864,0.35128092,-0.02952024,0.00764024,-0.0035
 8079,0.00134451,-0.00139344,-0.01592322,0.03827584,-0.01761803,0.04265
 540,-0.00400881,0.00133164,0.00364169,-0.00642035,0.00397601,-0.020576
 48,0.00573376,0.00768631,0.03238097,0.00041302,0.00085120,0.00014003,-
 0.10102317,0.01785098,0.07291032,-0.00322406,0.00193049,0.00065990,0.4
 9250700,0.00813160,-0.00085644,-0.00728575,0.00251033,-0.00022779,0.00
 854429,-0.02370115,0.00240923,-0.00640510,0.00012955,0.00082772,-0.000
 75966,0.00657768,-0.00203238,0.00786106,-0.00444450,0.00575927,-0.0004
 3977,-0.00016973,-0.00038436,0.00013434,0.01353559,-0.11675978,-0.0940
 9705,-0.00141716,0.00181180,0.00087104,0.19314175,0.42345638,-0.022299
 68,0.00060227,0.01034687,-0.00867595,-0.00093064,-0.02439390,0.0639353
 6,-0.00600801,0.02255386,-0.00298486,-0.00146652,0.00213227,-0.0238831
 8,0.00601309,-0.03605508,0.03429148,-0.00526283,-0.00456361,0.00011932
 ,0.00155265,0.00007931,0.03287711,-0.07285318,-0.22400210,0.00116587,0
 .00188277,0.00049335,-0.05545166,0.24465749,0.45515970,-0.00386958,0.0
 0377768,-0.00628504,0.00865680,0.00087348,0.00780581,0.01308020,-0.006
 18504,0.01324466,-0.00139763,-0.00250525,0.00018676,-0.00296490,0.0034
 6959,-0.00888487,-0.04983708,-0.01780721,-0.01326842,-0.00065599,0.001
 81100,-0.00031523,-0.24037425,-0.07111694,-0.05366917,0.00261235,-0.00
 089632,-0.00058121,-0.02823100,-0.01874503,-0.04453756,0.58426014,-0.0
 0091875,0.00063365,-0.00185618,0.00304592,0.00304505,0.00056545,0.0065
 5707,-0.00273762,0.00257775,-0.00041842,-0.00053265,0.00003279,-0.0024
 7055,0.00135457,-0.00357440,-0.00159825,0.00331310,0.00294482,0.000585
 12,0.00001213,0.00015302,-0.07788286,-0.10835674,-0.05325888,0.0007635
 0,-0.00135891,0.00017598,-0.01452753,-0.00943010,-0.04209330,0.1168279
 3,0.30336913,0.00349441,0.00149709,-0.00222875,0.00580639,-0.00008340,
 0.00440167,-0.00387976,-0.00134811,-0.00375497,0.00056729,-0.00056547,
 -0.00023979,-0.00026294,0.00102778,0.00227533,0.00049603,0.01122429,0.
 01658907,0.00071827,-0.00148707,0.00084746,-0.04831344,-0.05637436,-0.
 14528545,-0.00147606,-0.00052764,0.00112838,-0.00722426,-0.03439410,-0
 .04250947,-0.02654545,0.34882472,0.74367648,0.00000006,-0.00009414,0.0
 0073739,-0.00040590,0.00074127,0.00238044,-0.00550391,0.00506918,-0.00
 744620,0.00045665,0.00029764,-0.00008292,0.00030751,0.00064964,0.00167
 754,-0.00212155,0.00113763,-0.00161819,-0.00003540,-0.00034059,-0.0001
 4172,0.00484644,0.00542735,-0.00575892,-0.00007873,-0.00039823,0.00004
 299,-0.09725277,-0.11095610,-0.03019398,0.00465146,0.00014247,0.003265
 91,0.11116118,-0.00554370,0.00153254,0.00130393,-0.00024017,-0.0006179
 4,-0.00519215,0.01637037,-0.01489321,0.00879771,-0.00077664,0.00098338
 ,0.00074222,-0.00316478,0.00323117,-0.00337838,0.00323451,-0.00088182,
 0.00154481,0.00002902,0.00021887,0.00013072,-0.00514314,-0.00335323,0.
 00843950,0.00023374,0.00036340,-0.00005828,-0.12853936,-0.23052069,-0.
 10857689,-0.00343558,0.00010592,-0.00054079,0.12070132,0.24255541,0.00
 503226,-0.00089496,0.00044066,-0.00050918,0.00026057,0.00408181,-0.013
 61839,0.00788743,-0.00718360,0.00092142,-0.00029882,-0.00055988,0.0018
 5411,0.00083448,0.00089048,-0.00338701,0.00236510,-0.00244636,-0.00000
 342,-0.00041538,-0.00007315,-0.01452950,-0.02157389,-0.01091544,0.0000
 0480,0.00000118,-0.00002756,-0.02512154,-0.09036549,-0.06472491,0.0060
 9177,-0.00208369,-0.00586041,0.04781495,0.09929135,0.07908616,0.009877
 22,-0.00187193,-0.00378735,-0.00184735,-0.00011719,0.00918034,-0.02878
 205,0.00559648,-0.01112128,0.00134662,0.00065616,-0.00099011,0.0070715
 8,-0.00174484,0.00626826,-0.00105350,0.00205988,-0.00268352,-0.0001439
 6,-0.00098464,-0.00014813,-0.02752674,0.01319875,0.04405089,-0.0007614
 5,-0.00024869,0.00018493,-0.22682343,-0.04827707,0.04672019,0.00681239
 ,0.00217007,0.00687180,-0.00982322,0.00590630,-0.00406050,0.56222322,0
 .00593855,-0.00134921,0.00222597,-0.00260188,-0.00003914,0.00333892,-0
 .00861671,0.00350347,-0.01103254,0.00140047,0.00018649,-0.00075490,0.0
 0148090,-0.00062983,0.00373503,-0.00018285,0.00199291,-0.00521415,0.00
 006464,-0.00036723,-0.00011577,0.00033466,0.00838037,-0.00171070,0.000
 53712,-0.00011825,-0.00016187,-0.02093735,-0.08437729,-0.00755456,0.01
 695303,-0.00047201,-0.03892140,-0.02262771,0.00085663,0.00510667,0.047
 99977,0.27742510,-0.00240272,0.00052989,-0.00103329,-0.00248728,-0.000
 18701,-0.00174476,-0.00458259,-0.00414682,0.00508741,-0.00071713,0.001
 48668,0.00049485,0.00170478,-0.00026312,-0.00043438,0.00265667,-0.0018
 3009,-0.00499949,-0.00005852,-0.00043036,0.00007685,0.01928045,-0.0093
 3594,-0.01891127,0.00113731,-0.00012563,-0.00008019,0.04108282,-0.0116
 5746,-0.08977516,0.04151768,-0.02905055,-0.06809541,-0.01428769,0.0015
 1643,0.00189669,-0.13182646,0.26894490,0.69632772,-0.00022820,-0.00176
 260,0.00049509,-0.00458954,-0.00041475,0.00030546,-0.00297528,0.000882
 11,0.00353948,-0.00018751,0.00147550,0.00020435,0.00203877,-0.00136058
 ,-0.00152397,0.00473699,-0.00068899,-0.00462248,-0.00027987,-0.0000752
 7,-0.00018869,-0.08523057,-0.02537220,0.00261286,-0.00052011,0.0004430
 7,0.00068428,-0.03077555,-0.02110476,-0.01019181,-0.20307582,0.0024261
 7,0.08844038,-0.00720974,0.00090121,0.00127878,-0.14273085,-0.06267382
 ,-0.08958160,0.75390914,-0.00583252,0.00099254,0.00138548,-0.00005091,
 0.00069292,-0.00476694,0.01347641,-0.00285945,0.00998369,-0.00113780,-
 0.00050656,0.00059594,-0.00213926,0.00074694,-0.00544945,-0.00013293,-
 0.00083402,-0.00138263,-0.00027170,0.00038219,-0.00012554,-0.01056130,
 0.01070980,0.00190634,0.00033625,-0.00012684,-0.00014689,-0.04700887,0
 .00198990,-0.01153988,-0.00711817,-0.07223403,-0.03487093,-0.00004722,
 -0.00091848,0.00073135,-0.05106554,-0.14570042,-0.13568577,0.19690406,
 0.28184531,-0.00823652,0.00222250,0.00049676,0.00394939,0.00015847,-0.
 00605321,0.02022338,-0.00494568,0.01101040,-0.00148564,-0.00121805,0.0
 0075547,-0.00477121,0.00222552,-0.00679408,-0.00490985,-0.00710021,0.0
 0160359,-0.00006829,0.00149052,0.00002269,0.03146449,0.00988697,0.0108
 5466,0.00086891,0.00012772,-0.00050509,-0.06171475,-0.01093452,-0.0080
 5425,0.07582694,-0.04085043,-0.16762038,0.00489512,-0.00411261,0.00560
 509,-0.07206612,-0.13396994,-0.28884246,0.06487207,0.22349419,0.540557
 03,-0.00055946,0.00011350,0.00042691,-0.00028841,0.00047420,-0.0005176
 2,0.00141313,-0.00027596,0.00032799,-0.00011088,-0.00015952,0.00010240
 ,-0.00039934,0.00010887,0.00004332,0.00149248,0.00117297,0.00006286,-0
 .00001547,-0.00002924,-0.00000479,0.00867679,-0.01103673,-0.02571664,-
 0.00056312,-0.00028775,0.00070959,-0.00612849,-0.00404728,-0.00159623,
 -0.07336504,-0.02461755,-0.01231826,0.00074316,-0.00038388,-0.00106791
 ,-0.00429890,0.00074477,0.00514689,0.01181129,0.01539209,0.01756886,0.
 06066052,-0.00053828,-0.00009777,0.00082951,-0.00001389,-0.00034313,-0
 .00095007,0.00159592,-0.00081062,-0.00076317,0.00000513,0.00017124,0.0
 0009408,-0.00074868,0.00033433,-0.00005999,0.00156073,-0.00191633,0.00
 144586,0.00008195,0.00017342,0.00003087,0.00250852,-0.00819160,-0.0070
 1112,-0.00058086,0.00042208,0.00017943,-0.00161415,0.00278267,-0.00190
 840,-0.02302732,-0.12126323,-0.19138850,-0.00120860,0.00113693,-0.0006
 3486,-0.00163911,0.00127020,-0.00005671,0.00088576,-0.00344840,0.00466
 274,0.02280545,0.12900947,0.00004378,-0.00011232,0.00031290,-0.0002708
 4,-0.00015860,-0.00067712,-0.00108623,0.00073817,-0.00092608,0.0000892
 2,0.00009049,-0.00002721,0.00032680,-0.00042779,0.00100399,0.00053705,
 0.00121699,0.00082922,0.00004875,-0.00007232,-0.00000993,-0.00031725,-
 0.00036415,-0.00555999,0.00004090,0.00011998,-0.00025804,-0.00062974,-
 0.00248794,0.00306530,-0.01282996,-0.18902571,-0.33913396,0.00033307,-
 0.00002141,-0.00042263,0.00361790,-0.00015852,0.00015426,-0.00615147,-
 0.00479311,-0.01100804,0.01648551,0.19546939,0.35218130,0.00008019,-0.
 00006177,-0.00032241,0.00009811,-0.00002195,0.00013848,0.00024510,0.00
 010224,0.00223657,-0.00009682,0.00000171,-0.00001570,0.00039687,-0.000
 14014,-0.00175296,0.00048751,0.00031484,0.00141525,-0.00002228,0.00001
 885,-0.00000693,-0.00556396,-0.00218977,0.00000417,-0.00044657,0.00010
 400,0.00011412,-0.00601206,0.01052441,0.02041833,-0.00016129,-0.002827
 37,-0.00291741,0.00041037,-0.00018294,-0.00072053,-0.14401466,0.042459
 84,0.13251651,0.01078291,-0.00288140,-0.01010120,0.00093669,-0.0002863
 5,-0.00027950,0.14306712,0.00048842,-0.00005849,-0.00021941,-0.0001147
 0,-0.00006536,0.00058415,-0.00154982,0.00079003,-0.00119726,0.00007550
 ,0.00000924,-0.00003990,-0.00004919,-0.00035370,0.00079371,-0.00019395
 ,0.00097172,-0.00029763,0.00000927,-0.00007342,0.00000043,-0.00331172,
 0.00126865,-0.00158850,0.00000977,0.00008613,0.00005129,-0.00021445,0.
 00190516,0.00742575,-0.00073793,0.00297767,-0.00490485,0.00149226,-0.0
 0035158,0.00044704,0.03920067,-0.06150310,-0.08096421,0.01027461,-0.00
 078353,-0.00623171,0.00011052,0.00160650,-0.00079470,-0.04597118,0.056
 07780,-0.00002211,-0.00001694,0.00018189,0.00005708,0.00005407,-0.0002
 1229,0.00049489,-0.00016330,0.00011930,0.00001089,-0.00002741,-0.00000
 474,0.00003132,0.00005089,-0.00016371,0.00021033,-0.00032382,0.0004949
 1,0.00000579,0.00002694,0.00000120,-0.00049323,-0.00103785,0.00093750,
 -0.00011688,-0.00007132,0.00007867,-0.00261747,0.00195593,0.00272675,-
 0.00180419,-0.00455045,-0.00150776,-0.00013974,0.00022981,-0.00038635,
 0.13015614,-0.07991856,-0.23502254,0.01497210,-0.00254114,-0.01101855,
 0.00107609,-0.00048112,0.00009669,-0.14108679,0.08522804,0.24412327,0.
 00043281,-0.00004010,-0.00004256,-0.00004007,0.00002267,0.00055649,-0.
 00042257,0.00010442,-0.00053078,0.00009841,-0.00005484,-0.00005945,0.0
 0004662,0.00002670,0.00013378,-0.00055068,-0.00067784,-0.00054526,-0.0
 0001759,0.00012819,-0.00004901,-0.00014663,0.00129943,0.00319981,-0.00
 001259,-0.00001209,0.00000060,0.00114580,-0.00168813,0.00028725,-0.016
 14075,-0.00725696,-0.00672291,-0.00014560,0.00003372,0.00001988,0.0004
 7508,-0.00027344,0.00090088,-0.30547604,-0.09786119,-0.05631557,-0.000
 00494,0.00021378,0.00004202,-0.00018722,0.00048191,-0.00073422,0.32094
 595,-0.00090977,0.00034366,-0.00016911,0.00010436,-0.00013512,-0.00050
 877,0.00069604,-0.00080342,0.00121110,-0.00020853,0.00008802,0.0001146
 6,-0.00008627,0.00013613,-0.00029133,-0.00002846,0.00150885,-0.0003508
 0,-0.00010967,-0.00025352,0.00001289,0.00025195,0.00117240,-0.00213193
 ,0.00004218,0.00000970,0.00001631,-0.00255544,0.00364671,-0.00393982,0
 .00786208,0.00157409,0.00283277,0.00001383,0.00055271,-0.00065809,-0.0
 1083906,0.00094131,0.00125577,-0.10073952,-0.06994786,-0.03490549,-0.0
 0008445,-0.00083576,0.00078153,0.00103698,-0.00250371,0.00158623,0.105
 55376,0.06450580,-0.00007037,0.00003733,0.00029370,0.00014880,0.000033
 45,-0.00058393,0.00037566,-0.00022656,-0.00023728,0.00002807,0.0000203
 7,0.00001185,-0.00012527,0.00003625,0.00015838,0.00104619,-0.00005906,
 0.00137585,0.00013320,0.00002411,0.00006293,0.00261095,-0.00238506,-0.
 00381937,-0.00006368,0.00000280,-0.00000521,-0.00063121,-0.00519730,-0
 .00247892,0.02404747,0.01106907,0.00731797,-0.00147805,-0.00011597,0.0
 0059940,-0.02036698,-0.00383860,0.00490116,-0.06514486,-0.03679469,-0.
 07100962,-0.00072898,0.00054205,0.00037934,0.00036000,0.00170775,-0.00
 044424,0.05985906,0.03514407,0.06347797\\0.00097625,-0.00395628,0.0000
 0132,-0.00097680,0.00256713,-0.00000073,0.00000654,0.00138307,-0.00000
 308,0.00000048,0.00000184,0.00000004,-0.00000421,0.00000475,-0.0000013
 5,-0.00000150,0.00000040,-0.00000006,-0.00000015,-0.00000104,0.0000000
 4,0.00000291,-0.00000508,0.00000093,0.00000002,-0.00000064,0.00000006,
 -0.00000112,0.00000183,0.00000646,-0.00000056,0.00000357,-0.00000213,0
 .00000014,-0.00000015,0.00000010,0.00000175,0.00000722,0.00000584,-0.0
 0000417,-0.00000636,-0.00000758,-0.00000019,0.00000041,-0.00000004,0.0
 0000052,-0.00000027,0.00000043,0.00000008,-0.00000041,-0.00000023\\\@


 ... FOR AFTERWARDS A MAN FINDS PLEASURE IN HIS PAINS,
 WHEN HE HAS SUFFERED LONG AND WANDERED FAR.

                                    -- HOMER
 Job cpu time:       0 days  2 hours 20 minutes 15.9 seconds.
 Elapsed time:       0 days  0 hours 11 minutes 42.3 seconds.
 File lengths (MBytes):  RWF=    182 Int=      0 D2E=      0 Chk=     32 Scr=      1
 Normal termination of Gaussian 16 at Fri Jun 10 04:21:39 2022.
