 Entering Gaussian System, Link 0=g16
 Input=int_initalOpt_zmat_sp.gjf
 Output=int_initalOpt_zmat_sp.out
 Initial command:
 /software/gaussian/g16-a03/l1.exe "/local_scratch/11171280/Gau-24197.inp" -scrdir="/local_scratch/11171280/"
 Entering Link 1 = /software/gaussian/g16-a03/l1.exe PID=     24198.
  
 Copyright (c) 1988,1990,1992,1993,1995,1998,2003,2009,2016,
            Gaussian, Inc.  All Rights Reserved.
  
 This is part of the Gaussian(R) 16 program.  It is based on
 the Gaussian(R) 09 system (copyright 2009, Gaussian, Inc.),
 the Gaussian(R) 03 system (copyright 2003, Gaussian, Inc.),
 the Gaussian(R) 98 system (copyright 1998, Gaussian, Inc.),
 the Gaussian(R) 94 system (copyright 1995, Gaussian, Inc.),
 the Gaussian 92(TM) system (copyright 1992, Gaussian, Inc.),
 the Gaussian 90(TM) system (copyright 1990, Gaussian, Inc.),
 the Gaussian 88(TM) system (copyright 1988, Gaussian, Inc.),
 the Gaussian 86(TM) system (copyright 1986, Carnegie Mellon
 University), and the Gaussian 82(TM) system (copyright 1983,
 Carnegie Mellon University). Gaussian is a federally registered
 trademark of Gaussian, Inc.
  
 This software contains proprietary and confidential information,
 including trade secrets, belonging to Gaussian, Inc.
  
 This software is provided under written license and may be
 used, copied, transmitted, or stored only in accord with that
 written license.
  
 The following legend is applicable only to US Government
 contracts under FAR:
  
                    RESTRICTED RIGHTS LEGEND
  
 Use, reproduction and disclosure by the US Government is
 subject to restrictions as set forth in subparagraphs (a)
 and (c) of the Commercial Computer Software - Restricted
 Rights clause in FAR 52.227-19.
  
 Gaussian, Inc.
 340 Quinnipiac St., Bldg. 40, Wallingford CT 06492
  
  
 ---------------------------------------------------------------
 Warning -- This program may not be used in any manner that
 competes with the business of Gaussian, Inc. or will provide
 assistance to any competitor of Gaussian, Inc.  The licensee
 of this program is prohibited from giving any competitor of
 Gaussian, Inc. access to this program.  By using this program,
 the user acknowledges that Gaussian, Inc. is engaged in the
 business of creating and licensing software in the field of
 computational chemistry and represents and warrants to the
 licensee that it is not a competitor of Gaussian, Inc. and that
 it will not use this program in any manner prohibited above.
 ---------------------------------------------------------------
  

 Cite this work as:
 Gaussian 16, Revision A.03,
 M. J. Frisch, G. W. Trucks, H. B. Schlegel, G. E. Scuseria, 
 M. A. Robb, J. R. Cheeseman, G. Scalmani, V. Barone, 
 G. A. Petersson, H. Nakatsuji, X. Li, M. Caricato, A. V. Marenich, 
 J. Bloino, B. G. Janesko, R. Gomperts, B. Mennucci, H. P. Hratchian, 
 J. V. Ortiz, A. F. Izmaylov, J. L. Sonnenberg, D. Williams-Young, 
 F. Ding, F. Lipparini, F. Egidi, J. Goings, B. Peng, A. Petrone, 
 T. Henderson, D. Ranasinghe, V. G. Zakrzewski, J. Gao, N. Rega, 
 G. Zheng, W. Liang, M. Hada, M. Ehara, K. Toyota, R. Fukuda, 
 J. Hasegawa, M. Ishida, T. Nakajima, Y. Honda, O. Kitao, H. Nakai, 
 T. Vreven, K. Throssell, J. A. Montgomery, Jr., J. E. Peralta, 
 F. Ogliaro, M. J. Bearpark, J. J. Heyd, E. N. Brothers, K. N. Kudin, 
 V. N. Staroverov, T. A. Keith, R. Kobayashi, J. Normand, 
 K. Raghavachari, A. P. Rendell, J. C. Burant, S. S. Iyengar, 
 J. Tomasi, M. Cossi, J. M. Millam, M. Klene, C. Adamo, R. Cammi, 
 J. W. Ochterski, R. L. Martin, K. Morokuma, O. Farkas, 
 J. B. Foresman, and D. J. Fox, Gaussian, Inc., Wallingford CT, 2016.
 
 ******************************************
 Gaussian 16:  ES64L-G16RevA.03 25-Dec-2016
                10-Jun-2022 
 ******************************************
 %nprocshared=12
 Will use up to   12 processors via shared memory.
 %chk=checkpoint.chk
 %mem=12GB
 --------------------------
 # sp B3LYP/Def2TZVP NoSymm
 --------------------------
 1/38=1,172=1/1;
 2/12=2,15=1,17=6,18=5,40=1/2;
 3/5=44,7=101,11=2,25=1,30=1,74=-5/1,2,3;
 4//1;
 5/5=2,38=5/2;
 6/7=2,8=2,9=2,10=2,28=1/1;
 99/5=1,9=1/99;
 ----------------------------
 int_initalOpt_zmat_AlignedSp
 ----------------------------
 Symbolic Z-matrix:
 Charge =  0 Multiplicity = 1
 C
 C                    1    R2
 C                    1    R3       2    A3
 C                    1    R4       2    A4       3    D4       0
 H                    2    R5       1    A5       3    D5       0
 C                    2    R6       1    A6       5    D6       0
 C                    3    R7       1    A7       2    D7       0
 C                    3    R8       1    A8       7    D8       0
 H                    4    R9       1    A9       2    D9       0
 H                    4    R10      1    A10      9    D10      0
 C                    6    R11      2    A11      1    D11      0
 H                    6    R12      2    A12      11   D12      0
 H                    7    R13      3    A13      1    D13      0
 H                    8    R14      3    A14      1    D14      0
 H                    8    R15      3    A15      14   D15      0
 H                    11   R16      6    A16      2    D16      0
       Variables:
  R2                    1.38261                  
  R3                    1.39                     
  R4                    1.51936                  
  R5                    1.08337                  
  R6                    1.39879                  
  R7                    1.38261                  
  R8                    1.51936                  
  R9                    1.09147                  
  R10                   1.09147                  
  R11                   1.39701                  
  R12                   1.0832                   
  R13                   1.08337                  
  R14                   1.09147                  
  R15                   1.09147                  
  R16                   1.08319                  
  A3                  122.27232                  
  A4                  144.17062                  
  A5                  123.1251                   
  A6                  116.04148                  
  A7                  122.27242                  
  A8                   93.55718                  
  A9                  115.67765                  
  A10                 115.67785                  
  A11                 121.6862                   
  A12                 119.43895                  
  A13                 123.1252                   
  A14                 115.67771                  
  A15                 115.67782                  
  A16                 118.87479                  
  D4                 -179.99977                  
  D5                  180.                       
  D6                 -179.99994                  
  D7                   -0.00011                  
  D8                  179.99993                  
  D9                  -64.32795                  
  D10                 128.65591                  
  D11                   0.                       
  D12                 179.99988                  
  D13                 179.99986                  
  D14                 115.6722                   
  D15                 128.65598                  
  D16                -179.99992                  
 
                          Input orientation:                          
 ---------------------------------------------------------------------
 Center     Atomic      Atomic             Coordinates (Angstroms)
 Number     Number       Type             X           Y           Z
 ---------------------------------------------------------------------
      1          6           0        0.000000    0.000000    0.000000
      2          6           0        0.000000    0.000000    1.382613
      3          6           0        1.175276    0.000000   -0.742184
      4          6           0       -0.889394    0.000004   -1.231844
      5          1           0       -0.907297    0.000000    1.974639
      6          6           0        1.256780    0.000001    1.996712
      7          6           0        2.423668    0.000002   -0.147928
      8          6           0        0.445291   -0.000005   -2.074693
      9          1           0       -1.511753   -0.886576   -1.365831
     10          1           0       -1.511746    0.886585   -1.365834
     11          6           0        2.437979    0.000002    1.250788
     12          1           0        1.320972    0.000003    3.078004
     13          1           0        3.348183    0.000000   -0.712687
     14          1           0        0.591805    0.886574   -2.694223
     15          1           0        0.591802   -0.886588   -2.694216
     16          1           0        3.386706    0.000002    1.773497
 ---------------------------------------------------------------------
                    Distance matrix (angstroms):
                    1          2          3          4          5
     1  C    0.000000
     2  C    1.382613   0.000000
     3  C    1.390004   2.428176   0.000000
     4  C    1.519362   2.761595   2.121940   0.000000
     5  H    2.173105   1.083366   3.423191   3.206533   0.000000
     6  C    2.359313   1.398790   2.740109   3.876808   2.164189
     7  C    2.428178   2.866483   1.382615   3.485865   3.949761
     8  C    2.121941   3.485864   1.519361   1.578537   4.269260
     9  H    2.221916   3.259656   2.897426   1.091470   3.508578
    10  H    2.221916   3.259658   2.897423   1.091468   3.508583
    11  C    2.740111   2.441540   2.359313   4.151490   3.422693
    12  H    3.349489   2.149260   3.822966   4.843605   2.486483
    13  H    3.423194   3.949761   2.173108   4.269261   5.032974
    14  H    2.897428   4.213887   2.221916   2.262413   4.983131
    15  H    2.897425   4.213883   2.221916   2.262415   4.983126
    16  H    3.822966   3.409189   3.349489   5.226577   4.298711
                    6          7          8          9         10
     6  C    0.000000
     7  C    2.441538   0.000000
     8  C    4.151489   2.761594   0.000000
     9  H    4.444940   4.213888   2.262414   0.000000
    10  H    4.444939   4.213883   2.262414   1.773162   0.000000
    11  C    1.397009   1.398789   3.876807   4.820072   4.820069
    12  H    1.083196   3.409190   5.226577   5.343971   5.343970
    13  H    3.422691   1.083366   3.206532   4.983131   4.983126
    14  H    4.820071   3.259655   1.091470   3.055102   2.487880
    15  H    4.820067   3.259657   1.091469   2.487881   3.055104
    16  H    2.141591   2.149259   4.843603   5.885262   5.885258
                   11         12         13         14         15
    11  C    0.000000
    12  H    2.141594   0.000000
    13  H    2.164187   4.298712   0.000000
    14  H    4.444939   5.885261   3.508578   0.000000
    15  H    4.444938   5.885258   3.508580   1.773163   0.000000
    16  H    1.083194   2.443153   2.486482   5.343969   5.343968
                   16
    16  H    0.000000
 Symmetry turned off by external request.
 Stoichiometry    C8H8
 Framework group  C1[X(C8H8)]
 Deg. of freedom    42
 Full point group                 C1      NOp   1
 Rotational constants (GHZ):           4.4829913           2.0911714           1.4519556
 Standard basis: def2TZVP (5D, 7F)
   296 basis functions,   472 primitive gaussians,   336 cartesian basis functions
    28 alpha electrons       28 beta electrons
       nuclear repulsion energy       333.0947372821 Hartrees.
 NAtoms=   16 NActive=   16 NUniq=   16 SFac= 1.00D+00 NAtFMM=   60 NAOKFM=F Big=F
 Integral buffers will be    131072 words long.
 Raffenetti 2 integral format.
 Two-electron integral symmetry is turned off.
 One-electron integrals computed using PRISM.
   1 Symmetry operations used in ECPInt.
 ECPInt:  NShTT=    7260 NPrTT=   21936 LenC2=    7147 LenP2D=   17612.
 LDataN:  DoStor=T MaxTD1= 6 Len=  172
 NBasis=   296 RedAO= T EigKep=  8.47D-06  NBF=   296
 NBsUse=   296 1.00D-06 EigRej= -1.00D+00 NBFU=   296
 ExpMin= 9.52D-02 ExpMax= 1.36D+04 ExpMxC= 4.63D+02 IAcc=3 IRadAn=         5 AccDes= 0.00D+00
 Harris functional with IExCor=  402 and IRadAn=       5 diagonalized for initial guess.
 HarFok:  IExCor=  402 AccDes= 0.00D+00 IRadAn=         5 IDoV= 1 UseB2=F ITyADJ=14
 ICtDFT=  3500011 ScaDFX=  1.000000  1.000000  1.000000  1.000000
 FoFCou: FMM=F IPFlag=           0 FMFlag=      100000 FMFlg1=           0
         NFxFlg=           0 DoJE=T BraDBF=F KetDBF=T FulRan=T
         wScrn=  0.000000 ICntrl=       500 IOpCl=  0 I1Cent=   200000004 NGrid=           0
         NMat0=    1 NMatS0=      1 NMatT0=    0 NMatD0=    1 NMtDS0=    0 NMtDT0=    0
 Symmetry not used in FoFCou.
 Requested convergence on RMS density matrix=1.00D-08 within 128 cycles.
 Requested convergence on MAX density matrix=1.00D-06.
 Requested convergence on             energy=1.00D-06.
 No special actions if energy rises.
 Integral accuracy reduced to 1.0D-05 until final iterations.
 Initial convergence to 1.0D-05 achieved.  Increase integral accuracy.
 SCF Done:  E(RB3LYP) =  -309.742817669     A.U. after   13 cycles
            NFock= 13  Conv=0.67D-08     -V/T= 2.0054

 **********************************************************************

            Population analysis using the SCF density.

 **********************************************************************

 Alpha  occ. eigenvalues --  -10.18047 -10.18032 -10.17443 -10.17443 -10.17337
 Alpha  occ. eigenvalues --  -10.17285 -10.17212 -10.17159  -0.88093  -0.80978
 Alpha  occ. eigenvalues --   -0.74867  -0.68798  -0.64368  -0.59900  -0.56170
 Alpha  occ. eigenvalues --   -0.51352  -0.46836  -0.46672  -0.44725  -0.40431
 Alpha  occ. eigenvalues --   -0.40081  -0.37261  -0.35866  -0.35261  -0.32729
 Alpha  occ. eigenvalues --   -0.31683  -0.25426  -0.24295
 Alpha virt. eigenvalues --   -0.01662  -0.00276   0.04513   0.05605   0.06179
 Alpha virt. eigenvalues --    0.08597   0.09568   0.10093   0.12084   0.12147
 Alpha virt. eigenvalues --    0.12690   0.14542   0.14819   0.16993   0.17004
 Alpha virt. eigenvalues --    0.20824   0.21091   0.21440   0.22194   0.22505
 Alpha virt. eigenvalues --    0.23474   0.24558   0.26659   0.26713   0.28482
 Alpha virt. eigenvalues --    0.29300   0.32580   0.34163   0.34525   0.35081
 Alpha virt. eigenvalues --    0.35255   0.37188   0.37281   0.38265   0.39673
 Alpha virt. eigenvalues --    0.41037   0.42589   0.42831   0.43515   0.44233
 Alpha virt. eigenvalues --    0.44459   0.45070   0.47717   0.48435   0.49098
 Alpha virt. eigenvalues --    0.49523   0.50513   0.51764   0.52975   0.54212
 Alpha virt. eigenvalues --    0.57117   0.58131   0.59246   0.65491   0.65768
 Alpha virt. eigenvalues --    0.67278   0.68364   0.69759   0.69894   0.73741
 Alpha virt. eigenvalues --    0.77635   0.78423   0.80425   0.82059   0.83561
 Alpha virt. eigenvalues --    0.85177   0.85382   0.88411   0.92769   0.93884
 Alpha virt. eigenvalues --    0.94627   0.94950   0.96900   0.99201   1.00171
 Alpha virt. eigenvalues --    1.00435   1.01469   1.06240   1.09922   1.11201
 Alpha virt. eigenvalues --    1.11815   1.15146   1.16289   1.17995   1.20775
 Alpha virt. eigenvalues --    1.21451   1.23574   1.24309   1.25278   1.27056
 Alpha virt. eigenvalues --    1.28282   1.33664   1.34904   1.35128   1.39515
 Alpha virt. eigenvalues --    1.40643   1.42507   1.44668   1.48838   1.49116
 Alpha virt. eigenvalues --    1.50204   1.52757   1.54476   1.55545   1.56506
 Alpha virt. eigenvalues --    1.60352   1.60980   1.63833   1.64887   1.68084
 Alpha virt. eigenvalues --    1.68582   1.70117   1.72126   1.73547   1.75066
 Alpha virt. eigenvalues --    1.77158   1.79211   1.84653   1.85730   1.86349
 Alpha virt. eigenvalues --    1.89444   1.92464   1.95050   1.97939   1.98145
 Alpha virt. eigenvalues --    2.03112   2.05999   2.09136   2.12856   2.15538
 Alpha virt. eigenvalues --    2.17908   2.18569   2.19276   2.21464   2.23541
 Alpha virt. eigenvalues --    2.29486   2.31247   2.33188   2.38968   2.39492
 Alpha virt. eigenvalues --    2.43146   2.45580   2.45807   2.45948   2.46486
 Alpha virt. eigenvalues --    2.49884   2.51448   2.55387   2.58506   2.59808
 Alpha virt. eigenvalues --    2.62807   2.63531   2.63557   2.63884   2.67525
 Alpha virt. eigenvalues --    2.68009   2.68114   2.69979   2.70043   2.72893
 Alpha virt. eigenvalues --    2.74503   2.77054   2.77178   2.79312   2.81406
 Alpha virt. eigenvalues --    2.82065   2.85515   2.85802   2.86474   2.91562
 Alpha virt. eigenvalues --    2.92573   2.97716   2.98021   2.98751   2.99757
 Alpha virt. eigenvalues --    3.01237   3.04562   3.08805   3.08898   3.09009
 Alpha virt. eigenvalues --    3.11177   3.13600   3.15490   3.15777   3.16900
 Alpha virt. eigenvalues --    3.17620   3.17975   3.21210   3.23244   3.24608
 Alpha virt. eigenvalues --    3.25625   3.29280   3.29353   3.32123   3.33165
 Alpha virt. eigenvalues --    3.33553   3.34635   3.36120   3.40005   3.40010
 Alpha virt. eigenvalues --    3.41320   3.46974   3.48949   3.49007   3.52411
 Alpha virt. eigenvalues --    3.53182   3.53934   3.58346   3.58735   3.60812
 Alpha virt. eigenvalues --    3.65479   3.69249   3.70747   3.71674   3.75070
 Alpha virt. eigenvalues --    3.76732   3.82055   3.85827   3.86190   3.91088
 Alpha virt. eigenvalues --    3.92683   3.96793   3.96819   3.98426   3.98877
 Alpha virt. eigenvalues --    4.01294   4.02497   4.08098   4.11895   4.16124
 Alpha virt. eigenvalues --    4.16561   4.18370   4.27108   4.28747   4.28856
 Alpha virt. eigenvalues --    4.28887   4.35694   4.36433   4.38478   4.39566
 Alpha virt. eigenvalues --    4.48988   4.52063   4.59083   4.65294   4.73829
 Alpha virt. eigenvalues --    4.74564   4.74781   4.81651   4.82740   4.91258
 Alpha virt. eigenvalues --    4.93779   4.99128   5.11227   5.12958   5.28382
 Alpha virt. eigenvalues --    5.29908   5.31347   5.52402   5.63496   5.76988
 Alpha virt. eigenvalues --   22.12969  22.35373  22.52967  22.59084  22.60876
 Alpha virt. eigenvalues --   22.82552  22.90106  23.84361
          Condensed to atoms (all electrons):
               1          2          3          4          5          6
     1  C    5.035054   0.455768   0.530464   0.366139  -0.053444  -0.055645
     2  C    0.455768   5.040653  -0.057916  -0.062884   0.427352   0.496422
     3  C    0.530464  -0.057916   5.035073  -0.181532   0.010349  -0.049297
     4  C    0.366139  -0.062884  -0.181532   4.865380  -0.005286   0.004021
     5  H   -0.053444   0.427352   0.010349  -0.005286   0.564570  -0.046987
     6  C   -0.055645   0.496422  -0.049297   0.004021  -0.046987   4.863899
     7  C   -0.057916  -0.038824   0.455719   0.019057  -0.002485  -0.016866
     8  C   -0.181520   0.019054   0.366161   0.415747  -0.001279   0.000123
     9  H   -0.011334   0.003005  -0.004240   0.355623   0.000832   0.000074
    10  H   -0.011331   0.003005  -0.004242   0.355620   0.000832   0.000074
    11  C   -0.049291  -0.016876  -0.055641   0.000122   0.008975   0.507839
    12  H    0.011185  -0.055177  -0.001467  -0.000457  -0.007149   0.424945
    13  H    0.010349  -0.002485  -0.053446  -0.001279   0.000103   0.008975
    14  H   -0.004242  -0.000749  -0.011332  -0.011925   0.000053   0.000120
    15  H   -0.004244  -0.000749  -0.011329  -0.011923   0.000053   0.000120
    16  H   -0.001467   0.008778   0.011185   0.000293  -0.000281  -0.049380
               7          8          9         10         11         12
     1  C   -0.057916  -0.181520  -0.011334  -0.011331  -0.049291   0.011185
     2  C   -0.038824   0.019054   0.003005   0.003005  -0.016876  -0.055177
     3  C    0.455719   0.366161  -0.004240  -0.004242  -0.055641  -0.001467
     4  C    0.019057   0.415747   0.355623   0.355620   0.000122  -0.000457
     5  H   -0.002485  -0.001279   0.000832   0.000832   0.008975  -0.007149
     6  C   -0.016866   0.000123   0.000074   0.000074   0.507839   0.424945
     7  C    5.040695  -0.062884  -0.000749  -0.000749   0.496423   0.008778
     8  C   -0.062884   4.865366  -0.011927  -0.011925   0.004020   0.000293
     9  H   -0.000749  -0.011927   0.615573  -0.034068   0.000120   0.000010
    10  H   -0.000749  -0.011925  -0.034068   0.615572   0.000120   0.000010
    11  C    0.496423   0.004020   0.000120   0.000120   4.863879  -0.049380
    12  H    0.008778   0.000293   0.000010   0.000010  -0.049380   0.570606
    13  H    0.427355  -0.005285   0.000053   0.000053  -0.046988  -0.000281
    14  H    0.003004   0.355619   0.001808  -0.005899   0.000074  -0.000007
    15  H    0.003004   0.355616  -0.005899   0.001808   0.000074  -0.000007
    16  H   -0.055177  -0.000457  -0.000007  -0.000007   0.424946  -0.007905
              13         14         15         16
     1  C    0.010349  -0.004242  -0.004244  -0.001467
     2  C   -0.002485  -0.000749  -0.000749   0.008778
     3  C   -0.053446  -0.011332  -0.011329   0.011185
     4  C   -0.001279  -0.011925  -0.011923   0.000293
     5  H    0.000103   0.000053   0.000053  -0.000281
     6  C    0.008975   0.000120   0.000120  -0.049380
     7  C    0.427355   0.003004   0.003004  -0.055177
     8  C   -0.005285   0.355619   0.355616  -0.000457
     9  H    0.000053   0.001808  -0.005899  -0.000007
    10  H    0.000053  -0.005899   0.001808  -0.000007
    11  C   -0.046988   0.000074   0.000074   0.424946
    12  H   -0.000281  -0.000007  -0.000007  -0.007905
    13  H    0.564571   0.000832   0.000832  -0.007149
    14  H    0.000832   0.615579  -0.034071   0.000010
    15  H    0.000832  -0.034071   0.615578   0.000010
    16  H   -0.007149   0.000010   0.000010   0.570605
 Mulliken charges:
               1
     1  C    0.021474
     2  C   -0.218378
     3  C    0.021493
     4  C   -0.106716
     5  H    0.103792
     6  C   -0.088437
     7  C   -0.218383
     8  C   -0.106721
     9  H    0.091126
    10  H    0.091127
    11  C   -0.088418
    12  H    0.105999
    13  H    0.103790
    14  H    0.091125
    15  H    0.091126
    16  H    0.106001
 Sum of Mulliken charges =  -0.00000
 Mulliken charges with hydrogens summed into heavy atoms:
               1
     1  C    0.021474
     2  C   -0.114587
     3  C    0.021493
     4  C    0.075537
     6  C    0.017563
     7  C   -0.114593
     8  C    0.075530
    11  C    0.017583
 Electronic spatial extent (au):  <R**2>=            984.6617
 Charge=             -0.0000 electrons
 Dipole moment (field-independent basis, Debye):
    X=             -0.2625    Y=             -0.0000    Z=             -0.4156  Tot=              0.4916
 Quadrupole moment (field-independent basis, Debye-Ang):
   XX=            -44.8969   YY=            -50.3168   ZZ=            -44.2807
   XY=             -0.0000   XZ=             -0.1476   YZ=              0.0000
 Traceless Quadrupole moment (field-independent basis, Debye-Ang):
   XX=              1.6013   YY=             -3.8187   ZZ=              2.2174
   XY=             -0.0000   XZ=             -0.1476   YZ=              0.0000
 Octapole moment (field-independent basis, Debye-Ang**2):
  XXX=           -107.1326  YYY=             -0.0001  ZZZ=              3.9451  XYY=            -45.2401
  XXY=             -0.0000  XXZ=              1.2570  XZZ=            -36.1857  YZZ=             -0.0000
  YYZ=             -6.1450  XYZ=              0.0000
 Hexadecapole moment (field-independent basis, Debye-Ang**3):
 XXXX=           -629.6608 YYYY=            -72.6122 ZZZZ=           -617.7384 XXXY=             -0.0002
 XXXZ=            -80.2427 YYYX=             -0.0002 YYYZ=             -0.0002 ZZZX=            -80.2475
 ZZZY=             -0.0001 XXYY=           -136.6892 XXZZ=           -209.0426 YYZZ=           -122.2729
 XXYZ=             -0.0001 YYXZ=            -32.3189 ZZXY=             -0.0001
 N-N= 3.330947372821D+02 E-N=-1.384202082710D+03  KE= 3.080886578250D+02
 1\1\GINC-BHC0106\SP\RB3LYP\def2TZVP\C8H8\DHANAWAY\10-Jun-2022\0\\# sp 
 B3LYP/Def2TZVP NoSymm\\int_initalOpt_zmat_AlignedSp\\0,1\C\C,1,1.38261
 323\C,1,1.3900038,2,122.27231814\C,1,1.51936205,2,144.17061935,3,-179.
 99976763,0\H,2,1.08336574,1,123.12509687,3,180.,0\C,2,1.39878989,1,116
 .04148387,5,-179.99994169,0\C,3,1.3826148,1,122.27242099,2,-0.00011377
 ,0\C,3,1.51936123,1,93.55717756,7,179.99992812,0\H,4,1.0914701,1,115.6
 7765099,2,-64.32794695,0\H,4,1.09146811,1,115.67785261,9,128.65591459,
 0\C,6,1.3970091,2,121.68619799,1,0.,0\H,6,1.0831956,2,119.43894994,11,
 179.99988388,0\H,7,1.08336586,3,123.12519963,1,179.99985891,0\H,8,1.09
 14701,3,115.6777069,1,115.67220103,0\H,8,1.0914689,3,115.67782202,14,1
 28.65597931,0\H,11,1.08319376,6,118.87478514,2,-179.99992394,0\\Versio
 n=ES64L-G16RevA.03\HF=-309.7428177\RMSD=6.707e-09\Dipole=-0.1032613,-0
 .0000003,-0.1635228\Quadrupole=1.1905032,-2.8391066,1.6486033,-0.00001
 05,-0.1097699,0.0000073\PG=C01 [X(C8H8)]\\@


 DEMOCRATS BUY MOST OF THE BOOKS THAT HAVE BEEN
 BANNED; REPUBLICANS FORM CENSORSHIP COMMITTEES AND
 READ THEM AS A GROUP.
 Job cpu time:       0 days  0 hours  9 minutes 45.1 seconds.
 Elapsed time:       0 days  0 hours  0 minutes 49.0 seconds.
 File lengths (MBytes):  RWF=     52 Int=      0 D2E=      0 Chk=     32 Scr=      1
 Normal termination of Gaussian 16 at Fri Jun 10 02:28:12 2022.
