 Entering Gaussian System, Link 0=g16
 Input=ts_zmat_field_N25.gjf
 Output=ts_zmat_field_N25.out
 Initial command:
 /software/gaussian/g16-a03/l1.exe "/local_scratch/11177249/Gau-12610.inp" -scrdir="/local_scratch/11177249/"
 Entering Link 1 = /software/gaussian/g16-a03/l1.exe PID=     12611.
  
 Copyright (c) 1988,1990,1992,1993,1995,1998,2003,2009,2016,
            Gaussian, Inc.  All Rights Reserved.
  
 This is part of the Gaussian(R) 16 program.  It is based on
 the Gaussian(R) 09 system (copyright 2009, Gaussian, Inc.),
 the Gaussian(R) 03 system (copyright 2003, Gaussian, Inc.),
 the Gaussian(R) 98 system (copyright 1998, Gaussian, Inc.),
 the Gaussian(R) 94 system (copyright 1995, Gaussian, Inc.),
 the Gaussian 92(TM) system (copyright 1992, Gaussian, Inc.),
 the Gaussian 90(TM) system (copyright 1990, Gaussian, Inc.),
 the Gaussian 88(TM) system (copyright 1988, Gaussian, Inc.),
 the Gaussian 86(TM) system (copyright 1986, Carnegie Mellon
 University), and the Gaussian 82(TM) system (copyright 1983,
 Carnegie Mellon University). Gaussian is a federally registered
 trademark of Gaussian, Inc.
  
 This software contains proprietary and confidential information,
 including trade secrets, belonging to Gaussian, Inc.
  
 This software is provided under written license and may be
 used, copied, transmitted, or stored only in accord with that
 written license.
  
 The following legend is applicable only to US Government
 contracts under FAR:
  
                    RESTRICTED RIGHTS LEGEND
  
 Use, reproduction and disclosure by the US Government is
 subject to restrictions as set forth in subparagraphs (a)
 and (c) of the Commercial Computer Software - Restricted
 Rights clause in FAR 52.227-19.
  
 Gaussian, Inc.
 340 Quinnipiac St., Bldg. 40, Wallingford CT 06492
  
  
 ---------------------------------------------------------------
 Warning -- This program may not be used in any manner that
 competes with the business of Gaussian, Inc. or will provide
 assistance to any competitor of Gaussian, Inc.  The licensee
 of this program is prohibited from giving any competitor of
 Gaussian, Inc. access to this program.  By using this program,
 the user acknowledges that Gaussian, Inc. is engaged in the
 business of creating and licensing software in the field of
 computational chemistry and represents and warrants to the
 licensee that it is not a competitor of Gaussian, Inc. and that
 it will not use this program in any manner prohibited above.
 ---------------------------------------------------------------
  

 Cite this work as:
 Gaussian 16, Revision A.03,
 M. J. Frisch, G. W. Trucks, H. B. Schlegel, G. E. Scuseria, 
 M. A. Robb, J. R. Cheeseman, G. Scalmani, V. Barone, 
 G. A. Petersson, H. Nakatsuji, X. Li, M. Caricato, A. V. Marenich, 
 J. Bloino, B. G. Janesko, R. Gomperts, B. Mennucci, H. P. Hratchian, 
 J. V. Ortiz, A. F. Izmaylov, J. L. Sonnenberg, D. Williams-Young, 
 F. Ding, F. Lipparini, F. Egidi, J. Goings, B. Peng, A. Petrone, 
 T. Henderson, D. Ranasinghe, V. G. Zakrzewski, J. Gao, N. Rega, 
 G. Zheng, W. Liang, M. Hada, M. Ehara, K. Toyota, R. Fukuda, 
 J. Hasegawa, M. Ishida, T. Nakajima, Y. Honda, O. Kitao, H. Nakai, 
 T. Vreven, K. Throssell, J. A. Montgomery, Jr., J. E. Peralta, 
 F. Ogliaro, M. J. Bearpark, J. J. Heyd, E. N. Brothers, K. N. Kudin, 
 V. N. Staroverov, T. A. Keith, R. Kobayashi, J. Normand, 
 K. Raghavachari, A. P. Rendell, J. C. Burant, S. S. Iyengar, 
 J. Tomasi, M. Cossi, J. M. Millam, M. Klene, C. Adamo, R. Cammi, 
 J. W. Ochterski, R. L. Martin, K. Morokuma, O. Farkas, 
 J. B. Foresman, and D. J. Fox, Gaussian, Inc., Wallingford CT, 2016.
 
 ******************************************
 Gaussian 16:  ES64L-G16RevA.03 25-Dec-2016
                12-Jun-2022 
 ******************************************
 %nprocshared=12
 Will use up to   12 processors via shared memory.
 %chk=checkpoint.chk
 %mem=12GB
 ----------------------------------------------------------------------
 # Opt=(TS, CalcFC, noeigentest, Z-matrix, MaxStep=10) Field=read NoSym
 m B3LYP/Def2TZVP freq=noraman pop=none
 ----------------------------------------------------------------------
 1/5=1,8=10,10=4,11=1,18=40,26=3,38=1/1,3;
 2/12=2,15=1,17=6,18=5,29=3,40=1/2;
 3/5=44,7=101,11=2,14=-6,25=1,30=1,71=2,74=-5,140=1/1,2,3;
 4//1;
 5/5=2,38=5/2;
 8/6=4,10=90,11=11/1;
 11/6=1,8=1,9=11,15=111,16=1,31=1/1,2,10;
 10/6=1,13=1,31=1/2;
 7/10=1,18=20,25=1,30=1/1,2,3,16;
 1/5=1,8=10,10=4,11=1,18=40,26=3/3(2);
 2/15=1,29=3/2;
 99//99;
 2/15=1,29=3/2;
 3/5=44,7=101,11=2,14=-2,25=1,30=1,71=1,74=-5/1,2,3;
 4/5=5,16=3,69=1/1;
 5/5=2,38=5/2;
 7/30=1/1,2,3,16;
 1/5=1,8=10,11=1,18=40,26=3/3(-5);
 2/15=1,29=3/2;
 99/9=1/99;
 -----------------
 ts_zmat_initalOpt
 -----------------
 Symbolic Z-matrix:
 Charge =  0 Multiplicity = 1
 C
 H                    1    R2
 H                    1    R3       2    A3
 C                    1    R4       2    A4       3    D4       0
 C                    1    R4       2    A4       3    -D4      0
 C                    5    R6       1    A6       2    D6       0
 C                    4    R6       1    A6       2    -D6      0
 H                    5    R8       1    A8       6    D8       0
 H                    4    R8       1    A8       7    -D8      0
 H                    6    R10      5    A10      1    D10      0
 H                    7    R10      4    A10      1    -D10     0
 C                    1    R12      2    A12      3    D12      0
 C                    12   R13      1    A13      2    D13      0
 C                    12   R14      1    A14      13   D14      0
 H                    12   R15      1    A15      13   D15      0
 O                    13   R16      12   A16      1    D16      0
 O                    13   R17      12   A17      16   D17      0
 C                    14   R13      12   A18      1    D18      0
 H                    14   R15      12   A19      18   D19      0
 O                    18   R17      14   A17      12   D20      0
       Variables:
  R2                    1.08725                  
  R3                    1.09863                  
  R4                    1.50658                  
  R6                    1.4021                   
  R8                    1.08058                  
  R10                   1.08017                  
  R12                   2.63316                  
  R13                   1.47576                  
  R14                   1.39892                  
  R15                   1.0781                   
  R16                   1.39688                  
  R17                   1.19309                  
  A3                  107.85544                  
  A4                  116.25133                  
  A6                  106.58767                  
  A8                  123.68064                  
  A10                 125.13949                  
  A12                  78.4465                   
  A13                 131.43242                  
  A14                  74.59533                  
  A15                  91.95917                  
  A16                 107.51454                  
  A17                 130.87883                  
  A18                 107.37715                  
  A19                 126.30714                  
  D4                  121.58554                  
  D6                 -154.36044                  
  D8                 -154.0626                   
  D10                -168.40754                  
  D12                 164.26859                  
  D13                -173.44082                  
  D14                 -99.78813                  
  D15                 132.97492                  
  D16                 -79.18652                  
  D17                 179.70717                  
  D18                 129.27145                  
  D19                 149.84537                  
  D20                 174.93277                  
 

 GradGradGradGradGradGradGradGradGradGradGradGradGradGradGradGradGradGrad
 Berny optimization.
 Initialization pass.
                       ----------------------------
                       !    Initial Parameters    !
                       ! (Angstroms and Degrees)  !
 ----------------------                            ----------------------
 !      Name          Value   Derivative information (Atomic Units)     !
 ------------------------------------------------------------------------
 !       R2          1.0873   calculate D2E/DX2 analytically            !
 !       R3          1.0986   calculate D2E/DX2 analytically            !
 !       R4          1.5066   calculate D2E/DX2 analytically            !
 !       R6          1.4021   calculate D2E/DX2 analytically            !
 !       R8          1.0806   calculate D2E/DX2 analytically            !
 !       R10         1.0802   calculate D2E/DX2 analytically            !
 !       R12         2.6332   calculate D2E/DX2 analytically            !
 !       R13         1.4758   calculate D2E/DX2 analytically            !
 !       R14         1.3989   calculate D2E/DX2 analytically            !
 !       R15         1.0781   calculate D2E/DX2 analytically            !
 !       R16         1.3969   calculate D2E/DX2 analytically            !
 !       R17         1.1931   calculate D2E/DX2 analytically            !
 !       A3        107.8554   calculate D2E/DX2 analytically            !
 !       A4        116.2513   calculate D2E/DX2 analytically            !
 !       A6        106.5877   calculate D2E/DX2 analytically            !
 !       A8        123.6806   calculate D2E/DX2 analytically            !
 !       A10       125.1395   calculate D2E/DX2 analytically            !
 !       A12        78.4465   calculate D2E/DX2 analytically            !
 !       A13       131.4324   calculate D2E/DX2 analytically            !
 !       A14        74.5953   calculate D2E/DX2 analytically            !
 !       A15        91.9592   calculate D2E/DX2 analytically            !
 !       A16       107.5145   calculate D2E/DX2 analytically            !
 !       A17       130.8788   calculate D2E/DX2 analytically            !
 !       A18       107.3771   calculate D2E/DX2 analytically            !
 !       A19       126.3071   calculate D2E/DX2 analytically            !
 !       D4        121.5855   calculate D2E/DX2 analytically            !
 !       D6       -154.3604   calculate D2E/DX2 analytically            !
 !       D8       -154.0626   calculate D2E/DX2 analytically            !
 !       D10      -168.4075   calculate D2E/DX2 analytically            !
 !       D12       164.2686   calculate D2E/DX2 analytically            !
 !       D13      -173.4408   calculate D2E/DX2 analytically            !
 !       D14       -99.7881   calculate D2E/DX2 analytically            !
 !       D15       132.9749   calculate D2E/DX2 analytically            !
 !       D16       -79.1865   calculate D2E/DX2 analytically            !
 !       D17       179.7072   calculate D2E/DX2 analytically            !
 !       D18       129.2714   calculate D2E/DX2 analytically            !
 !       D19       149.8454   calculate D2E/DX2 analytically            !
 !       D20       174.9328   calculate D2E/DX2 analytically            !
 ------------------------------------------------------------------------
 Trust Radius=1.00D-01 FncErr=1.00D-07 GrdErr=1.00D-06 EigMax=2.50D+02 EigMin=1.00D-04
 Number of steps in this run=     48 maximum allowed number of steps=    100.
 Search for a saddle point of order  1.
 GradGradGradGradGradGradGradGradGradGradGradGradGradGradGradGradGradGrad

 ---------------------------------------------------------------------------------------------------
                            Z-MATRIX (ANGSTROMS AND DEGREES)
   CD    Cent   Atom    N1       Length/X        N2       Alpha/Y        N3        Beta/Z          J
 ---------------------------------------------------------------------------------------------------
      1      1  C 
      2      2  H        1   1.087252(     1)
      3      3  H        1   1.098632(     2)      2  107.855(    20)
      4      4  C        1   1.506584(     3)      2  116.251(    21)      3  121.586(    38)      0
      5      5  C        1   1.506584(     4)      2  116.251(    22)      3 -121.586(    39)      0
      6      6  C        5   1.402102(     5)      1  106.588(    23)      2 -154.360(    40)      0
      7      7  C        4   1.402102(     6)      1  106.588(    24)      2  154.360(    41)      0
      8      8  H        5   1.080579(     7)      1  123.681(    25)      6 -154.063(    42)      0
      9      9  H        4   1.080579(     8)      1  123.681(    26)      7  154.063(    43)      0
     10     10  H        6   1.080167(     9)      5  125.139(    27)      1 -168.408(    44)      0
     11     11  H        7   1.080167(    10)      4  125.139(    28)      1  168.408(    45)      0
     12     12  C        1   2.633162(    11)      2   78.446(    29)      3  164.269(    46)      0
     13     13  C       12   1.475758(    12)      1  131.432(    30)      2 -173.441(    47)      0
     14     14  C       12   1.398918(    13)      1   74.595(    31)     13  -99.788(    48)      0
     15     15  H       12   1.078097(    14)      1   91.959(    32)     13  132.975(    49)      0
     16     16  O       13   1.396878(    15)     12  107.515(    33)      1  -79.187(    50)      0
     17     17  O       13   1.193087(    16)     12  130.879(    34)     16  179.707(    51)      0
     18     18  C       14   1.475758(    17)     12  107.377(    35)      1  129.271(    52)      0
     19     19  H       14   1.078097(    18)     12  126.307(    36)     18  149.845(    53)      0
     20     20  O       18   1.193087(    19)     14  130.879(    37)     12  174.933(    54)      0
 ---------------------------------------------------------------------------------------------------
                         Z-Matrix orientation:                         
 ---------------------------------------------------------------------
 Center     Atomic      Atomic             Coordinates (Angstroms)
 Number     Number       Type             X           Y           Z
 ---------------------------------------------------------------------
      1          6           0        0.000000    0.000000    0.000000
      2          1           0        0.000000    0.000000    1.087252
      3          1           0        1.045715    0.000000   -0.336859
      4          6           0       -0.707719   -1.151031   -0.666376
      5          6           0       -0.707719    1.151031   -0.666376
      6          6           0       -1.110412    0.695841   -1.929916
      7          6           0       -1.110412   -0.695841   -1.929916
      8          1           0       -0.518568    2.188392   -0.430249
      9          1           0       -0.518568   -2.188392   -0.430249
     10          1           0       -1.484954    1.322348   -2.726136
     11          1           0       -1.484954   -1.322348   -2.726136
     12          6           0       -2.483178   -0.699459    0.527377
     13          6           0       -3.581751   -1.140209   -0.353950
     14          6           0       -2.483178    0.699459    0.527377
     15          1           0       -2.170315   -1.337815    1.337879
     16          8           0       -4.125795    0.000000   -0.949942
     17          8           0       -4.003541   -2.230963   -0.590182
     18          6           0       -3.581751    1.140209   -0.353950
     19          1           0       -2.170315    1.337815    1.337879
     20          8           0       -4.003541    2.230963   -0.590182
 ---------------------------------------------------------------------
                    Distance matrix (angstroms):
                    1          2          3          4          5
     1  C    0.000000
     2  H    1.087252   0.000000
     3  H    1.098632   1.766808   0.000000
     4  C    1.506584   2.213809   2.123201   0.000000
     5  C    1.506584   2.213809   2.123201   2.302062   0.000000
     6  C    2.332763   3.289455   2.769640   2.273682   1.402102
     7  C    2.332763   3.289455   2.769640   1.402102   2.273682
     8  H    2.289779   2.713076   2.691610   3.353100   1.080579
     9  H    2.289779   2.713076   2.691610   1.080579   3.353100
    10  H    3.374242   4.300654   3.723108   3.311240   2.208179
    11  H    3.374242   4.300654   3.723108   2.208179   3.311240
    12  C    2.633162   2.639863   3.699896   2.186600   2.828713
    13  C    3.775486   4.025677   4.765900   2.890984   3.688828
    14  C    2.633162   2.639863   3.699896   2.828713   2.186600
    15  H    2.879225   2.561802   3.864886   2.488195   3.514339
    16  O    4.233743   4.601342   5.207724   3.617808   3.617808
    17  O    4.621023   4.880504   5.525971   3.469079   4.722937
    18  C    3.775486   4.025677   4.765900   3.688828   2.890984
    19  H    2.879225   2.561802   3.864886   3.514339   2.488195
    20  O    4.621023   4.880504   5.525971   4.722937   3.469079
                    6          7          8          9         10
     6  C    0.000000
     7  C    1.391682   0.000000
     8  H    2.197041   3.304252   0.000000
     9  H    3.304252   2.197041   4.376784   0.000000
    10  H    1.080167   2.201667   2.637239   4.304683   0.000000
    11  H    2.201667   1.080167   4.304683   2.637239   2.644696
    12  C    3.141598   2.814745   3.621660   2.644553   3.958472
    13  C    3.458651   2.964566   4.524212   3.238456   4.010986
    14  C    2.814745   3.141598   2.644553   3.621660   3.459739
    15  H    3.992196   3.494854   4.276526   2.564766   4.905344
    16  O    3.246087   3.246087   4.251027   4.251027   3.446377
    17  O    4.327963   3.538599   5.630392   3.488900   4.850938
    18  C    2.964566   3.458651   3.238456   4.524212   3.171277
    19  H    3.494854   3.992196   2.564766   4.276526   4.121429
    20  O    3.538599   4.327963   3.488900   5.630392   3.425078
                   11         12         13         14         15
    11  H    0.000000
    12  C    3.459739   0.000000
    13  C    3.171277   1.475758   0.000000
    14  C    3.958472   1.398918   2.316890   0.000000
    15  H    4.121429   1.078097   2.212121   2.214787   0.000000
    16  O    3.446377   2.317306   1.396878   2.317306   3.293596
    17  O    3.425078   2.430216   1.193087   3.485372   2.806394
    18  C    4.010986   2.316890   2.280418   1.475758   3.315876
    19  H    4.905344   2.214787   3.315876   1.078097   2.675630
    20  O    4.850938   3.485372   3.405659   2.430216   4.451327
                   16         17         18         19         20
    16  O    0.000000
    17  O    2.263088   0.000000
    18  C    1.396878   3.405659   0.000000
    19  H    3.293596   4.451327   2.212121   0.000000
    20  O    2.263088   4.461926   1.193087   2.806394   0.000000
 Symmetry turned off by external request.
 Stoichiometry    C9H8O3
 Framework group  CS[SG(CH2O),X(C8H6O2)]
 Deg. of freedom    29
 Full point group                 CS      NOp   2
 Rotational constants (GHZ):           1.4014272           1.0789735           0.7990138
 Standard basis: def2TZVP (5D, 7F)
 The following finite field(s) will be applied:
 An electric field of             -0.0018  0.0017  0.0003
   420 basis functions,   676 primitive gaussians,   480 cartesian basis functions
    43 alpha electrons       43 beta electrons
       nuclear repulsion energy       708.6752211408 Hartrees.
 NAtoms=   20 NActive=   20 NUniq=   20 SFac= 1.00D+00 NAtFMM=   60 NAOKFM=F Big=F
 Integral buffers will be    131072 words long.
 Raffenetti 2 integral format.
 Two-electron integral symmetry is turned off.
 One-electron integrals computed using PRISM.
   1 Symmetry operations used in ECPInt.
 ECPInt:  NShTT=   13530 NPrTT=   41904 LenC2=   13163 LenP2D=   31870.
 LDataN:  DoStor=T MaxTD1= 6 Len=  172
 NBasis=   420 RedAO= T EigKep=  2.05D-05  NBF=   420
 NBsUse=   420 1.00D-06 EigRej= -1.00D+00 NBFU=   420
 The nuclear repulsion energy is now       709.3383372435 hartrees.
 ExpMin= 9.52D-02 ExpMax= 2.70D+04 ExpMxC= 9.22D+02 IAcc=3 IRadAn=         5 AccDes= 0.00D+00
 Harris functional with IExCor=  402 and IRadAn=       5 diagonalized for initial guess.
 HarFok:  IExCor=  402 AccDes= 0.00D+00 IRadAn=         5 IDoV= 1 UseB2=F ITyADJ=14
 ICtDFT=  3500011 ScaDFX=  1.000000  1.000000  1.000000  1.000000
 FoFCou: FMM=F IPFlag=           0 FMFlag=      100000 FMFlg1=           0
         NFxFlg=           0 DoJE=T BraDBF=F KetDBF=T FulRan=T
         wScrn=  0.000000 ICntrl=       500 IOpCl=  0 I1Cent=   200000004 NGrid=           0
         NMat0=    1 NMatS0=      1 NMatT0=    0 NMatD0=    1 NMtDS0=    0 NMtDT0=    0
 Symmetry not used in FoFCou.
 Requested convergence on RMS density matrix=1.00D-08 within 128 cycles.
 Requested convergence on MAX density matrix=1.00D-06.
 Requested convergence on             energy=1.00D-06.
 No special actions if energy rises.
 Integral accuracy reduced to 1.0D-05 until final iterations.
 Initial convergence to 1.0D-05 achieved.  Increase integral accuracy.
 SCF Done:  E(RB3LYP) =  -573.604887533     A.U. after   15 cycles
            NFock= 15  Conv=0.35D-08     -V/T= 2.0047
 DoSCS=F DFT=T ScalE2(SS,OS)=  1.000000  1.000000
 Range of M.O.s used for correlation:     1   420
 NBasis=   420 NAE=    43 NBE=    43 NFC=     0 NFV=     0
 NROrb=    420 NOA=    43 NOB=    43 NVA=   377 NVB=   377

 **** Warning!!: The largest alpha MO coefficient is  0.43261155D+02

   1 Symmetry operations used in ECPInt.
 ECPInt:  NShTT=   13530 NPrTT=   41904 LenC2=   13163 LenP2D=   31870.
 LDataN:  DoStor=T MaxTD1= 7 Len=  274
 Symmetrizing basis deriv contribution to polar:
 IMax=3 JMax=2 DiffMx= 0.00D+00
 G2DrvN: will do    21 centers at a time, making    1 passes.
 Calling FoFCou, ICntrl=  3107 FMM=F I1Cent=   0 AccDes= 0.00D+00.
 End of G2Drv F.D. properties file   721 does not exist.
 End of G2Drv F.D. properties file   722 does not exist.
 End of G2Drv F.D. properties file   788 does not exist.
          IDoAtm=11111111111111111111
          Differentiating once with respect to nuclear coordinates.
 CalDSu exits because no D1Ps are significant.
          There are    63 degrees of freedom in the 1st order CPHF.  IDoFFX=6 NUNeed=     0.
     57 vectors produced by pass  0 Test12= 2.57D-14 1.59D-09 XBig12= 2.30D-01 1.06D-01.
 AX will form    57 AO Fock derivatives at one time.
     57 vectors produced by pass  1 Test12= 2.57D-14 1.59D-09 XBig12= 4.45D-02 6.23D-02.
     57 vectors produced by pass  2 Test12= 2.57D-14 1.59D-09 XBig12= 2.95D-04 2.56D-03.
     57 vectors produced by pass  3 Test12= 2.57D-14 1.59D-09 XBig12= 1.36D-06 1.61D-04.
     57 vectors produced by pass  4 Test12= 2.57D-14 1.59D-09 XBig12= 3.37D-09 6.23D-06.
     57 vectors produced by pass  5 Test12= 2.57D-14 1.59D-09 XBig12= 6.02D-12 3.07D-07.
     24 vectors produced by pass  6 Test12= 2.57D-14 1.59D-09 XBig12= 9.93D-15 1.07D-08.
 InvSVY:  IOpt=1 It=  1 EMax= 9.44D-16
 Solved reduced A of dimension   366 with    63 vectors.
 End of Minotr F.D. properties file   721 does not exist.
 End of Minotr F.D. properties file   722 does not exist.
 End of Minotr F.D. properties file   788 does not exist.
   1 Symmetry operations used in ECPInt.
 ECPInt:  NShTT=   13530 NPrTT=   41904 LenC2=   13163 LenP2D=   31870.
 LDataN:  DoStor=T MaxTD1= 8 Len=  415
 Calling FoFJK, ICntrl=    100147 FMM=F ISym2X=0 I1Cent= 0 IOpClX= 0 NMat=1 NMatS=1 NMatT=0.
 -------------------------------------------------------------------
 Center     Atomic                   Forces (Hartrees/Bohr)
 Number     Number              X              Y              Z
 -------------------------------------------------------------------
      1        6          -0.000120621    0.000205396    0.000001631
      2        1           0.000156327   -0.000104633   -0.000051848
      3        1          -0.000134606   -0.000159796    0.000058563
      4        6           0.000473966   -0.000061005    0.000348915
      5        6           0.000363472   -0.000194072   -0.000111670
      6        6          -0.000134164   -0.000253688    0.000019108
      7        6          -0.000849907    0.000384121   -0.000092658
      8        1           0.000108273    0.000027991   -0.000028621
      9        1           0.000036644    0.000050805   -0.000042172
     10        1           0.000206367   -0.000063768   -0.000156420
     11        1           0.000340278   -0.000121692   -0.000057717
     12        6          -0.000299234   -0.000626506   -0.000392897
     13        6           0.001727698   -0.002173732    0.001135270
     14        6          -0.001134620    0.000809655   -0.000474594
     15        1           0.000109292   -0.000114947   -0.000162458
     16        8          -0.000961217    0.002483639   -0.000603187
     17        8          -0.000669393    0.001056918   -0.000010626
     18        6           0.002559492   -0.004132407    0.001353139
     19        1           0.000092798   -0.000030188   -0.000033499
     20        8          -0.001870844    0.003017909   -0.000698261
 -------------------------------------------------------------------
 Cartesian Forces:  Max     0.004132407 RMS     0.001010782
 -----------------------------------------------------------------------------------------------
                       Internal Coordinate Forces (Hartree/Bohr or radian)
  Cent   Atom   N1       Length/X         N2         Alpha/Y        N3         Beta/Z          J
 -----------------------------------------------------------------------------------------------
      1  C 
      2  H        1  -0.000052(     1)
      3  H        1  -0.000146(     2)      2  -0.000030(    20)
      4  C        1  -0.000262(     3)      2  -0.000055(    21)      3  -0.000482(    38)     0
      5  C        1  -0.000502(     4)      2   0.002764(    22)      3   0.000634(    39)     0
      6  C        5   0.000206(     5)      1  -0.001056(    23)      2   0.000019(    40)     0
      7  C        4   0.000367(     6)      1   0.000120(    24)      2  -0.001013(    41)     0
      8  H        5   0.000040(     7)      1  -0.000095(    25)      6   0.000166(    42)     0
      9  H        4  -0.000052(     8)      1  -0.000022(    26)      7  -0.000092(    43)     0
     10  H        6   0.000007(     9)      5   0.000246(    27)      1   0.000397(    44)     0
     11  H        7  -0.000005(    10)      4  -0.000206(    28)      1  -0.000587(    45)     0
     12  C        1   0.000366(    11)      2  -0.001828(    29)      3   0.003355(    46)     0
     13  C       12  -0.000792(    12)      1   0.001084(    30)      2  -0.003983(    47)     0
     14  C       12  -0.000335(    13)      1   0.003698(    31)     13   0.001578(    48)     0
     15  H       12  -0.000022(    14)      1  -0.000213(    32)     13  -0.000408(    49)     0
     16  O       13   0.002659(    15)     12  -0.001291(    33)      1  -0.000092(    50)     0
     17  O       13  -0.000728(    16)     12   0.001983(    34)     16   0.000873(    51)     0
     18  C       14  -0.001237(    17)     12  -0.003367(    35)      1   0.000653(    52)     0
     19  H       14  -0.000016(    18)     12  -0.000052(    36)     18   0.000162(    53)     0
     20  O       18   0.003559(    19)     14   0.001139(    37)     12  -0.000715(    54)     0
 -----------------------------------------------------------------------------------------------
 Internal  Forces:  Max     0.003983403 RMS     0.001376138

 GradGradGradGradGradGradGradGradGradGradGradGradGradGradGradGradGradGrad
 Berny optimization.
 Search for a saddle point.
 Step number   1 out of a maximum of   48
 All quantities printed in internal units (Hartrees-Bohrs-Radians)
 Swapping is turned off.
 Second derivative matrix not updated -- analytic derivatives used.
 ITU=  0
     Eigenvalues ---   -0.17884   0.03084   0.03231   0.04902   0.06839
     Eigenvalues ---    0.07763   0.08503   0.10718   0.11585   0.14565
     Eigenvalues ---    0.16440   0.18998   0.21394   0.23384   0.27351
     Eigenvalues ---    0.31618   0.33333   0.34535   0.34690   0.37310
     Eigenvalues ---    0.41395   0.47208   0.54982   0.59301   0.64698
     Eigenvalues ---    0.71963   0.73082   0.73270   0.74318   0.79512
     Eigenvalues ---    0.91539   1.23551   1.37890   1.73114   1.76258
     Eigenvalues ---    2.25842   9.31377  38.11693
 Eigenvectors required to have negative eigenvalues:
                          R12       D8        D4        D19       R14
   1                    0.49094  -0.37863  -0.29571   0.28780  -0.24968
                          R6        A12       D6        A15       D15
   1                   -0.24772  -0.22804   0.21383  -0.19716  -0.19438
 RFO step:  Lambda0=9.832113441D-06 Lambda=-2.38114614D-04.
 Linear search not attempted -- option 19 set.
 Variable       Old X    -DE/DX   Delta X   Delta X   Delta X     New X
                                 (Linear)    (Quad)   (Total)
    R2        2.05461  -0.00005   0.00000  -0.00030  -0.00030   2.05431
    R3        2.07611  -0.00015   0.00000  -0.00093  -0.00093   2.07519
    R4        2.84703  -0.00076   0.00000   0.00009   0.00009   2.84712
    R6        2.64959   0.00057   0.00000   0.00076   0.00076   2.65035
    R8        2.04200  -0.00001   0.00000   0.00003   0.00003   2.04203
   R10        2.04122   0.00000   0.00000  -0.00001  -0.00001   2.04121
   R12        4.97595   0.00037   0.00000   0.00562   0.00562   4.98157
   R13        2.78878  -0.00203   0.00000  -0.00329  -0.00329   2.78549
   R14        2.64357  -0.00034   0.00000   0.00321   0.00321   2.64678
   R15        2.03731  -0.00004   0.00000  -0.00004  -0.00004   2.03727
   R16        2.63972   0.00266   0.00000   0.00769   0.00769   2.64741
   R17        2.25461   0.00283   0.00000   0.00177   0.00177   2.25638
    A3        1.88243  -0.00003   0.00000   0.00473   0.00473   1.88717
    A4        2.02897   0.00271   0.00000  -0.00527  -0.00527   2.02370
    A6        1.86031  -0.00094   0.00000   0.00130   0.00130   1.86160
    A8        2.15863  -0.00012   0.00000  -0.00100  -0.00100   2.15763
   A10        2.18410   0.00004   0.00000   0.00009   0.00009   2.18418
   A12        1.36915  -0.00183   0.00000  -0.00705  -0.00705   1.36210
   A13        2.29393   0.00108   0.00000   0.00951   0.00951   2.30344
   A14        1.30193   0.00370   0.00000  -0.01052  -0.01052   1.29142
   A15        1.60499  -0.00021   0.00000   0.00685   0.00685   1.61184
   A16        1.87648  -0.00129   0.00000   0.00107   0.00107   1.87756
   A17        2.28427   0.00312   0.00000   0.00299   0.00299   2.28726
   A18        1.87408  -0.00337   0.00000   0.00255   0.00255   1.87664
   A19        2.20448  -0.00005   0.00000  -0.00262  -0.00262   2.20186
    D4        2.12207  -0.00112   0.00000   0.00461   0.00461   2.12667
    D6       -2.69410   0.00103   0.00000   0.01293   0.01293  -2.68117
    D8       -2.68890   0.00026   0.00000   0.00095   0.00095  -2.68795
   D10       -2.93927   0.00098   0.00000   0.00690   0.00690  -2.93236
   D12        2.86703   0.00335   0.00000   0.00266   0.00266   2.86969
   D13       -3.02711  -0.00398   0.00000  -0.03986  -0.03986  -3.06697
   D14       -1.74163   0.00158   0.00000   0.01434   0.01434  -1.72729
   D15        2.32085  -0.00041   0.00000   0.01437   0.01437   2.33522
   D16       -1.38207  -0.00009   0.00000   0.01252   0.01252  -1.36954
   D17        3.13648   0.00087   0.00000   0.00983   0.00983   3.14631
   D18        2.25621   0.00065   0.00000   0.01541   0.01541   2.27162
   D19        2.61530   0.00016   0.00000  -0.00178  -0.00178   2.61351
   D20        3.05315  -0.00071   0.00000  -0.01524  -0.01524   3.03791
         Item               Value     Threshold  Converged?
 Maximum Force            0.003983     0.000450     NO 
 RMS     Force            0.001658     0.000300     NO 
 Maximum Displacement     0.039859     0.001800     NO 
 RMS     Displacement     0.009544     0.001200     NO 
 Predicted change in Energy=-1.145479D-04
 GradGradGradGradGradGradGradGradGradGradGradGradGradGradGradGradGradGrad

 ---------------------------------------------------------------------------------------------------
                            Z-MATRIX (ANGSTROMS AND DEGREES)
   CD    Cent   Atom    N1       Length/X        N2       Alpha/Y        N3        Beta/Z          J
 ---------------------------------------------------------------------------------------------------
      1      1  C 
      2      2  H        1   1.087096(     1)
      3      3  H        1   1.098142(     2)      2  108.127(    20)
      4      4  C        1   1.506631(     3)      2  115.950(    21)      3  121.849(    38)      0
      5      5  C        1   1.506631(     4)      2  115.950(    22)      3 -121.849(    39)      0
      6      6  C        5   1.402504(     5)      1  106.662(    23)      2 -153.620(    40)      0
      7      7  C        4   1.402504(     6)      1  106.662(    24)      2  153.620(    41)      0
      8      8  H        5   1.080593(     7)      1  123.623(    25)      6 -154.008(    42)      0
      9      9  H        4   1.080593(     8)      1  123.623(    26)      7  154.008(    43)      0
     10     10  H        6   1.080164(     9)      5  125.145(    27)      1 -168.012(    44)      0
     11     11  H        7   1.080164(    10)      4  125.145(    28)      1  168.012(    45)      0
     12     12  C        1   2.636133(    11)      2   78.042(    29)      3  164.421(    46)      0
     13     13  C       12   1.474017(    12)      1  131.977(    30)      2 -175.725(    47)      0
     14     14  C       12   1.400615(    13)      1   73.993(    31)     13  -98.966(    48)      0
     15     15  H       12   1.078078(    14)      1   92.352(    32)     13  133.798(    49)      0
     16     16  O       13   1.400949(    15)     12  107.576(    33)      1  -78.469(    50)      0
     17     17  O       13   1.194025(    16)     12  131.050(    34)     16  180.270(    51)      0
     18     18  C       14   1.474017(    17)     12  107.524(    35)      1  130.154(    52)      0
     19     19  H       14   1.078078(    18)     12  126.157(    36)     18  149.743(    53)      0
     20     20  O       18   1.194025(    19)     14  131.050(    37)     12  174.059(    54)      0
 ---------------------------------------------------------------------------------------------------
                         Z-Matrix orientation:                         
 ---------------------------------------------------------------------
 Center     Atomic      Atomic             Coordinates (Angstroms)
 Number     Number       Type             X           Y           Z
 ---------------------------------------------------------------------
      1          6           0        0.000000    0.000000    0.000000
      2          1           0        0.000000    0.000000    1.087096
      3          1           0        1.043643    0.000000   -0.341652
      4          6           0       -0.714877   -1.150760   -0.659272
      5          6           0       -0.714877    1.150760   -0.659272
      6          6           0       -1.134860    0.695463   -1.917579
      7          6           0       -1.134860   -0.695463   -1.917579
      8          1           0       -0.520299    2.188029   -0.427122
      9          1           0       -0.520299   -2.188029   -0.427122
     10          1           0       -1.513112    1.322819   -2.711369
     11          1           0       -1.513112   -1.322819   -2.711369
     12          6           0       -2.484187   -0.692605    0.546179
     13          6           0       -3.609385   -1.091125   -0.318596
     14          6           0       -2.458598    0.707503    0.573870
     15          1           0       -2.172636   -1.352932    1.339373
     16          8           0       -4.147184    0.075493   -0.877551
     17          8           0       -4.065753   -2.166441   -0.565820
     18          6           0       -3.571644    1.188406   -0.264335
     19          1           0       -2.111686    1.321329    1.389419
     20          8           0       -3.989240    2.290394   -0.456506
 ---------------------------------------------------------------------
                    Distance matrix (angstroms):
                    1          2          3          4          5
     1  C    0.000000
     2  H    1.087096   0.000000
     3  H    1.098142   1.769325   0.000000
     4  C    1.506631   2.210225   2.125446   0.000000
     5  C    1.506631   2.210225   2.125446   2.301519   0.000000
     6  C    2.334241   3.286281   2.777244   2.273380   1.402504
     7  C    2.334241   3.286281   2.777244   1.402504   2.273380
     8  H    2.289239   2.711280   2.690853   3.352501   1.080593
     9  H    2.289239   2.711280   2.690853   1.080593   3.352501
    10  H    3.375038   4.297405   3.728593   3.311627   2.208594
    11  H    3.375038   4.297405   3.728593   2.208594   3.311627
    12  C    2.636133   2.635048   3.703178   2.189401   2.825166
    13  C    3.784141   4.024200   4.779305   2.915097   3.676994
    14  C    2.621945   2.609342   3.688419   2.830961   2.181210
    15  H    2.888718   2.571851   3.873076   2.482038   3.519674
    16  O    4.239686   4.589627   5.218963   3.651311   3.603412
    17  O    4.641547   4.894481   5.554245   3.502671   4.716027
    18  C    3.773436   3.999414   4.766461   3.713325   2.884182
    19  H    2.852300   2.509289   3.833878   3.501347   2.485418
    20  O    4.622590   4.852077   5.530733   4.754377   3.472943
                    6          7          8          9         10
     6  C    0.000000
     7  C    1.390925   0.000000
     8  H    2.197020   3.303584   0.000000
     9  H    3.303584   2.197020   4.376058   0.000000
    10  H    1.080164   2.201508   2.636674   4.304592   0.000000
    11  H    2.201508   1.080164   4.304592   2.636674   2.645638
    12  C    3.133292   2.809056   3.619699   2.653388   3.951777
    13  C    3.445565   2.972637   4.506338   3.279852   3.993351
    14  C    2.821302   3.150859   2.636465   3.625340   3.473522
    15  H    3.985051   3.480945   4.288254   2.558927   4.899298
    16  O    3.246555   3.278739   4.221373   4.298920   3.443406
    17  O    4.313685   3.546993   5.617017   3.548231   4.826416
    18  C    2.985653   3.495725   3.215035   4.553846   3.200562
    19  H    3.504588   3.994731   2.565834   4.260039   4.144244
    20  O    3.581344   4.381502   3.470575   5.664864   3.485946
                   11         12         13         14         15
    11  H    0.000000
    12  C    3.457134   0.000000
    13  C    3.189577   1.474017   0.000000
    14  C    3.976047   1.400615   2.314275   0.000000
    15  H    4.104191   1.078078   2.209446   2.216564   0.000000
    16  O    3.500929   2.320031   1.400949   2.314602   3.294539
    17  O    3.439629   2.431067   1.194025   3.484450   2.806323
    18  C    4.065929   2.318986   2.280489   1.474017   3.314739
    19  H    4.915921   2.214891   3.313662   1.078078   2.675424
    20  O    4.926553   3.488387   3.405581   2.431067   4.449613
                   16         17         18         19         20
    16  O    0.000000
    17  O    2.264967   0.000000
    18  C    1.394939   3.404414   0.000000
    19  H    3.291582   4.450380   2.209988   0.000000
    20  O    2.260091   4.458832   1.194025   2.805661   0.000000
 Symmetry turned off by external request.
 Stoichiometry    C9H8O3
 Framework group  C1[X(C9H8O3)]
 Deg. of freedom    54
 Full point group                 C1      NOp   1
 Rotational constants (GHZ):           1.4033516           1.0719580           0.7951609
 Standard basis: def2TZVP (5D, 7F)
 The following finite field(s) will be applied:
 An electric field of             -0.0018  0.0017  0.0003
   420 basis functions,   676 primitive gaussians,   480 cartesian basis functions
    43 alpha electrons       43 beta electrons
       nuclear repulsion energy       708.0163707503 Hartrees.
 NAtoms=   20 NActive=   20 NUniq=   20 SFac= 1.00D+00 NAtFMM=   60 NAOKFM=F Big=F
 Integral buffers will be    131072 words long.
 Raffenetti 2 integral format.
 Two-electron integral symmetry is turned off.
 One-electron integrals computed using PRISM.
   1 Symmetry operations used in ECPInt.
 ECPInt:  NShTT=   13530 NPrTT=   41904 LenC2=   13161 LenP2D=   31864.
 LDataN:  DoStor=T MaxTD1= 6 Len=  172
 NBasis=   420 RedAO= T EigKep=  2.10D-05  NBF=   420
 NBsUse=   420 1.00D-06 EigRej= -1.00D+00 NBFU=   420
 The nuclear repulsion energy is now       708.6917239904 hartrees.
 Initial guess from the checkpoint file:  "checkpoint.chk"
 B after Tr=    -0.001713   -0.036832   -0.007615
         Rot=    0.999901   -0.006967   -0.009081    0.008164 Ang=  -1.61 deg.
 ExpMin= 9.52D-02 ExpMax= 2.70D+04 ExpMxC= 9.22D+02 IAcc=2 IRadAn=         4 AccDes= 0.00D+00
 Harris functional with IExCor=  402 and IRadAn=       4 diagonalized for initial guess.
 HarFok:  IExCor=  402 AccDes= 0.00D+00 IRadAn=         4 IDoV= 1 UseB2=F ITyADJ=14
 ICtDFT=  3500011 ScaDFX=  1.000000  1.000000  1.000000  1.000000
 FoFCou: FMM=F IPFlag=           0 FMFlag=      100000 FMFlg1=           0
         NFxFlg=           0 DoJE=T BraDBF=F KetDBF=T FulRan=T
         wScrn=  0.000000 ICntrl=       500 IOpCl=  0 I1Cent=   200000004 NGrid=           0
         NMat0=    1 NMatS0=      1 NMatT0=    0 NMatD0=    1 NMtDS0=    0 NMtDT0=    0
 Symmetry not used in FoFCou.
 Requested convergence on RMS density matrix=1.00D-08 within 128 cycles.
 Requested convergence on MAX density matrix=1.00D-06.
 Requested convergence on             energy=1.00D-06.
 No special actions if energy rises.
 Integral accuracy reduced to 1.0D-05 until final iterations.
 Initial convergence to 1.0D-05 achieved.  Increase integral accuracy.
 SCF Done:  E(RB3LYP) =  -573.605001612     A.U. after   12 cycles
            NFock= 12  Conv=0.53D-08     -V/T= 2.0048
   1 Symmetry operations used in ECPInt.
 ECPInt:  NShTT=   13530 NPrTT=   41904 LenC2=   13161 LenP2D=   31864.
 LDataN:  DoStor=T MaxTD1= 7 Len=  274
 Calling FoFJK, ICntrl=      2127 FMM=F ISym2X=0 I1Cent= 0 IOpClX= 0 NMat=1 NMatS=1 NMatT=0.
 -------------------------------------------------------------------
 Center     Atomic                   Forces (Hartrees/Bohr)
 Number     Number              X              Y              Z
 -------------------------------------------------------------------
      1        6          -0.000986036   -0.000045843    0.000011285
      2        1           0.000983301   -0.000188270   -0.000009316
      3        1          -0.000000300   -0.000300738   -0.000003584
      4        6          -0.000066111    0.000087980   -0.000135091
      5        6           0.000132249    0.000140725    0.000141054
      6        6           0.000378440    0.000381009    0.000072834
      7        6          -0.000385190    0.000097863   -0.000076210
      8        1           0.000161270    0.000033366   -0.000068079
      9        1          -0.000161566    0.000030912    0.000072093
     10        1          -0.000062184   -0.000106831   -0.000049734
     11        1           0.000067216   -0.000116542    0.000054770
     12        6           0.000342854    0.000423606    0.000244026
     13        6          -0.001070349   -0.002974277   -0.000502656
     14        6          -0.000340788    0.000463487   -0.000244801
     15        1           0.000006668    0.000014059    0.000004895
     16        8           0.000055094    0.000160424    0.000040909
     17        8           0.000711886    0.002547381    0.000294459
     18        6           0.000857506   -0.003194200    0.000332382
     19        1          -0.000002115    0.000009187   -0.000004026
     20        8          -0.000621847    0.002536703   -0.000175209
 -------------------------------------------------------------------
 Cartesian Forces:  Max     0.003194200 RMS     0.000803344
 -----------------------------------------------------------------------------------------------
                       Internal Coordinate Forces (Hartree/Bohr or radian)
  Cent   Atom   N1       Length/X         N2         Alpha/Y        N3         Beta/Z          J
 -----------------------------------------------------------------------------------------------
      1  C 
      2  H        1  -0.000009(     1)
      3  H        1   0.000001(     2)      2   0.000007(    20)
      4  C        1   0.000219(     3)      2  -0.000731(    21)      3   0.001176(    38)     0
      5  C        1   0.000011(     4)      2  -0.000238(    22)      3   0.002031(    39)     0
      6  C        5  -0.000204(     5)      1   0.000067(    23)      2  -0.000525(    40)     0
      7  C        4   0.000108(     6)      1   0.000650(    24)      2  -0.000290(    41)     0
      8  H        5   0.000046(     7)      1  -0.000115(    25)      6   0.000276(    42)     0
      9  H        4  -0.000043(     8)      1   0.000112(    26)      7   0.000281(    43)     0
     10  H        6  -0.000004(     9)      5   0.000250(    27)      1  -0.000088(    44)     0
     11  H        7   0.000004(    10)      4  -0.000273(    28)      1  -0.000094(    45)     0
     12  C        1   0.000059(    11)      2   0.000001(    29)      3  -0.000049(    46)     0
     13  C       12   0.000402(    12)      1  -0.000060(    30)      2   0.000063(    47)     0
     14  C       12  -0.000189(    13)      1   0.000594(    31)     13   0.000703(    48)     0
     15  H       12  -0.000003(    14)      1  -0.000018(    32)     13   0.000027(    49)     0
     16  O       13   0.000096(    15)     12  -0.000384(    33)      1  -0.000017(    50)     0
     17  O       13  -0.002627(    16)     12   0.000959(    34)     16   0.000010(    51)     0
     18  C       14  -0.000482(    17)     12  -0.000575(    35)      1   0.000047(    52)     0
     19  H       14   0.000002(    18)     12   0.000021(    36)     18  -0.000001(    53)     0
     20  O       18   0.002587(    19)     14  -0.000904(    37)     12   0.000010(    54)     0
 -----------------------------------------------------------------------------------------------
 Internal  Forces:  Max     0.002627180 RMS     0.000672713

 GradGradGradGradGradGradGradGradGradGradGradGradGradGradGradGradGradGrad
 Berny optimization.
 Search for a saddle point.
 Step number   2 out of a maximum of   48
 All quantities printed in internal units (Hartrees-Bohrs-Radians)
 Swapping is turned off.
 Update second derivatives using D2CorN and points    1    2
 ITU=  0  0
     Eigenvalues ---   -0.17855   0.03093   0.03230   0.04933   0.06842
     Eigenvalues ---    0.07760   0.08505   0.10707   0.11584   0.14563
     Eigenvalues ---    0.16439   0.19009   0.21395   0.23383   0.27346
     Eigenvalues ---    0.31618   0.33333   0.34535   0.34690   0.37310
     Eigenvalues ---    0.41395   0.47215   0.54978   0.59306   0.64698
     Eigenvalues ---    0.71963   0.73082   0.73270   0.74321   0.79515
     Eigenvalues ---    0.91539   1.23541   1.37887   1.73111   1.76258
     Eigenvalues ---    2.25842   9.31360  38.11696
 Eigenvectors required to have negative eigenvalues:
                          R12       D8        D4        D19       R14
   1                    0.49191  -0.37889  -0.29511   0.28788  -0.24952
                          R6        A12       D6        A15       D15
   1                   -0.24776  -0.22881   0.21523  -0.19646  -0.19315
 RFO step:  Lambda0=9.989009736D-08 Lambda=-4.32637378D-07.
 Linear search not attempted -- option 19 set.
 Variable       Old X    -DE/DX   Delta X   Delta X   Delta X     New X
                                 (Linear)    (Quad)   (Total)
    R2        2.05431  -0.00001   0.00000  -0.00002  -0.00002   2.05430
    R3        2.07519   0.00000   0.00000   0.00002   0.00002   2.07521
    R4        2.84712   0.00023   0.00000  -0.00001  -0.00001   2.84711
    R6        2.65035  -0.00010   0.00000   0.00007   0.00007   2.65042
    R8        2.04203   0.00000   0.00000   0.00000   0.00000   2.04203
   R10        2.04121   0.00000   0.00000  -0.00000  -0.00000   2.04121
   R12        4.98157   0.00006   0.00000  -0.00005  -0.00005   4.98152
   R13        2.78549  -0.00008   0.00000   0.00007   0.00007   2.78556
   R14        2.64678  -0.00019   0.00000   0.00010   0.00010   2.64688
   R15        2.03727  -0.00000   0.00000   0.00000   0.00000   2.03728
   R16        2.64741   0.00010   0.00000   0.00011   0.00011   2.64752
   R17        2.25638  -0.00004   0.00000   0.00000   0.00000   2.25638
    A3        1.88717   0.00001   0.00000  -0.00021  -0.00021   1.88696
    A4        2.02370  -0.00097   0.00000   0.00025   0.00025   2.02395
    A6        1.86160   0.00072   0.00000  -0.00007  -0.00007   1.86153
    A8        2.15763  -0.00000   0.00000  -0.00002  -0.00002   2.15761
   A10        2.18418  -0.00002   0.00000  -0.00001  -0.00001   2.18418
   A12        1.36210   0.00000   0.00000   0.00061   0.00061   1.36271
   A13        2.30344  -0.00006   0.00000   0.00042   0.00042   2.30386
   A14        1.29142   0.00059   0.00000   0.00001   0.00001   1.29143
   A15        1.61184  -0.00002   0.00000  -0.00013  -0.00013   1.61171
   A16        1.87756  -0.00038   0.00000   0.00004   0.00004   1.87759
   A17        2.28726   0.00006   0.00000  -0.00004  -0.00004   2.28722
   A18        1.87664  -0.00057   0.00000  -0.00002  -0.00002   1.87662
   A19        2.20186   0.00002   0.00000  -0.00008  -0.00008   2.20178
    D4        2.12667  -0.00085   0.00000  -0.00026  -0.00026   2.12642
    D6       -2.68117  -0.00024   0.00000  -0.00073  -0.00073  -2.68190
    D8       -2.68795  -0.00001   0.00000   0.00020   0.00020  -2.68775
   D10       -2.93236   0.00001   0.00000   0.00014   0.00014  -2.93223
   D12        2.86969  -0.00005   0.00000   0.00007   0.00007   2.86976
   D13       -3.06697   0.00006   0.00000   0.00033   0.00033  -3.06664
   D14       -1.72729   0.00070   0.00000   0.00033   0.00033  -1.72696
   D15        2.33522   0.00003   0.00000   0.00042   0.00042   2.33564
   D16       -1.36954  -0.00002   0.00000   0.00026   0.00026  -1.36929
   D17        3.14631   0.00001   0.00000   0.00007   0.00007   3.14638
   D18        2.27162   0.00005   0.00000   0.00047   0.00047   2.27209
   D19        2.61351  -0.00000   0.00000  -0.00073  -0.00073   2.61278
   D20        3.03791   0.00001   0.00000  -0.00005  -0.00005   3.03786
         Item               Value     Threshold  Converged?
 Maximum Force            0.000969     0.000450     NO 
 RMS     Force            0.000312     0.000300     NO 
 Maximum Displacement     0.000728     0.001800     YES
 RMS     Displacement     0.000262     0.001200     YES
 Predicted change in Energy=-1.663736D-07
 GradGradGradGradGradGradGradGradGradGradGradGradGradGradGradGradGradGrad

 ---------------------------------------------------------------------------------------------------
                            Z-MATRIX (ANGSTROMS AND DEGREES)
   CD    Cent   Atom    N1       Length/X        N2       Alpha/Y        N3        Beta/Z          J
 ---------------------------------------------------------------------------------------------------
      1      1  C 
      2      2  H        1   1.087088(     1)
      3      3  H        1   1.098155(     2)      2  108.115(    20)
      4      4  C        1   1.506627(     3)      2  115.964(    21)      3  121.835(    38)      0
      5      5  C        1   1.506627(     4)      2  115.964(    22)      3 -121.835(    39)      0
      6      6  C        5   1.402543(     5)      1  106.658(    23)      2 -153.661(    40)      0
      7      7  C        4   1.402543(     6)      1  106.658(    24)      2  153.661(    41)      0
      8      8  H        5   1.080595(     7)      1  123.622(    25)      6 -153.997(    42)      0
      9      9  H        4   1.080595(     8)      1  123.622(    26)      7  153.997(    43)      0
     10     10  H        6   1.080162(     9)      5  125.144(    27)      1 -168.004(    44)      0
     11     11  H        7   1.080162(    10)      4  125.144(    28)      1  168.004(    45)      0
     12     12  C        1   2.636108(    11)      2   78.077(    29)      3  164.425(    46)      0
     13     13  C       12   1.474053(    12)      1  132.002(    30)      2 -175.706(    47)      0
     14     14  C       12   1.400669(    13)      1   73.993(    31)     13  -98.947(    48)      0
     15     15  H       12   1.078080(    14)      1   92.344(    32)     13  133.822(    49)      0
     16     16  O       13   1.401005(    15)     12  107.578(    33)      1  -78.454(    50)      0
     17     17  O       13   1.194025(    16)     12  131.048(    34)     16  180.274(    51)      0
     18     18  C       14   1.474053(    17)     12  107.522(    35)      1  130.181(    52)      0
     19     19  H       14   1.078080(    18)     12  126.152(    36)     18  149.702(    53)      0
     20     20  O       18   1.194025(    19)     14  131.048(    37)     12  174.056(    54)      0
 ---------------------------------------------------------------------------------------------------
                         Z-Matrix orientation:                         
 ---------------------------------------------------------------------
 Center     Atomic      Atomic             Coordinates (Angstroms)
 Number     Number       Type             X           Y           Z
 ---------------------------------------------------------------------
      1          6           0        0.000000    0.000000    0.000000
      2          1           0        0.000000    0.000000    1.087088
      3          1           0        1.043727    0.000000   -0.341436
      4          6           0       -0.714496   -1.150801   -0.659606
      5          6           0       -0.714496    1.150801   -0.659606
      6          6           0       -1.133556    0.695545   -1.918279
      7          6           0       -1.133556   -0.695545   -1.918279
      8          1           0       -0.520001    2.188052   -0.427298
      9          1           0       -0.520001   -2.188052   -0.427298
     10          1           0       -1.511189    1.322945   -2.712327
     11          1           0       -1.511189   -1.322945   -2.712327
     12          6           0       -2.484533   -0.692521    0.544591
     13          6           0       -3.609534   -1.091250   -0.320405
     14          6           0       -2.459078    0.707655    0.571660
     15          1           0       -2.173413   -1.352354    1.338367
     16          8           0       -4.146988    0.075225   -0.880132
     17          8           0       -4.066021   -2.166613   -0.567207
     18          6           0       -3.571954    1.188059   -0.267120
     19          1           0       -2.113030    1.321817    1.387326
     20          8           0       -3.989612    2.289925   -0.459861
 ---------------------------------------------------------------------
                    Distance matrix (angstroms):
                    1          2          3          4          5
     1  C    0.000000
     2  H    1.087088   0.000000
     3  H    1.098155   1.769194   0.000000
     4  C    1.506627   2.210381   2.125305   0.000000
     5  C    1.506627   2.210381   2.125305   2.301601   0.000000
     6  C    2.334208   3.286482   2.776828   2.273513   1.402543
     7  C    2.334208   3.286482   2.776828   1.402543   2.273513
     8  H    2.289226   2.711335   2.690760   3.352571   1.080595
     9  H    2.289226   2.711335   2.690760   1.080595   3.352571
    10  H    3.374995   4.297607   3.728122   3.311767   2.208623
    11  H    3.374995   4.297607   3.728122   2.208623   3.311767
    12  C    2.636108   2.635677   3.703140   2.189324   2.825059
    13  C    3.784472   4.024997   4.779551   2.915451   3.677377
    14  C    2.621953   2.610270   3.688382   2.830802   2.180817
    15  H    2.888565   2.572105   3.873059   2.482128   3.519392
    16  O    4.240024   4.590547   5.219135   3.651544   3.603818
    17  O    4.642032   4.895246   5.554701   3.503303   4.716619
    18  C    3.773817   4.000527   4.766709   3.713405   2.884528
    19  H    2.852502   2.510426   3.834179   3.501381   2.484970
    20  O    4.623011   4.853227   5.531029   4.754459   3.473311
                    6          7          8          9         10
     6  C    0.000000
     7  C    1.391090   0.000000
     8  H    2.197056   3.303726   0.000000
     9  H    3.303726   2.197056   4.376104   0.000000
    10  H    1.080162   2.201686   2.636706   4.304754   0.000000
    11  H    2.201686   1.080162   4.304754   2.636706   2.645890
    12  C    3.133304   2.809070   3.619621   2.653406   3.951837
    13  C    3.446202   2.973256   4.506714   3.280186   3.994081
    14  C    2.820807   3.150520   2.636193   3.625336   3.472988
    15  H    3.985089   3.481156   4.287869   2.559245   4.899376
    16  O    3.247048   3.279117   4.221864   4.299130   3.444007
    17  O    4.314707   3.548068   5.617557   3.548844   4.827600
    18  C    2.985746   3.495722   3.215597   4.553921   3.200622
    19  H    3.504085   3.994514   2.565339   4.260256   4.143593
    20  O    3.581353   4.381446   3.471259   5.664940   3.485862
                   11         12         13         14         15
    11  H    0.000000
    12  C    3.457216   0.000000
    13  C    3.190302   1.474053   0.000000
    14  C    3.975726   1.400669   2.314172   0.000000
    15  H    4.104574   1.078080   2.209558   2.216548   0.000000
    16  O    3.501322   2.320135   1.401005   2.314456   3.294650
    17  O    3.441000   2.431079   1.194025   3.484351   2.806456
    18  C    4.065824   2.319039   2.280242   1.474053   3.314695
    19  H    4.915702   2.214899   3.313422   1.078080   2.675301
    20  O    4.926359   3.488434   3.405327   2.431079   4.449539
                   16         17         18         19         20
    16  O    0.000000
    17  O    2.265020   0.000000
    18  C    1.394578   3.404112   0.000000
    19  H    3.291253   4.450115   2.209874   0.000000
    20  O    2.259710   4.458486   1.194025   2.805511   0.000000
 Symmetry turned off by external request.
 Stoichiometry    C9H8O3
 Framework group  C1[X(C9H8O3)]
 Deg. of freedom    54
 Full point group                 C1      NOp   1
 Rotational constants (GHZ):           1.4035331           1.0717453           0.7950463
 Standard basis: def2TZVP (5D, 7F)
 The following finite field(s) will be applied:
 An electric field of             -0.0018  0.0017  0.0003
   420 basis functions,   676 primitive gaussians,   480 cartesian basis functions
    43 alpha electrons       43 beta electrons
       nuclear repulsion energy       708.0048062345 Hartrees.
 NAtoms=   20 NActive=   20 NUniq=   20 SFac= 1.00D+00 NAtFMM=   60 NAOKFM=F Big=F
 Integral buffers will be    131072 words long.
 Raffenetti 2 integral format.
 Two-electron integral symmetry is turned off.
 One-electron integrals computed using PRISM.
   1 Symmetry operations used in ECPInt.
 ECPInt:  NShTT=   13530 NPrTT=   41904 LenC2=   13161 LenP2D=   31862.
 LDataN:  DoStor=T MaxTD1= 6 Len=  172
 NBasis=   420 RedAO= T EigKep=  2.10D-05  NBF=   420
 NBsUse=   420 1.00D-06 EigRej= -1.00D+00 NBFU=   420
 The nuclear repulsion energy is now       708.6800151961 hartrees.
 Initial guess from the checkpoint file:  "checkpoint.chk"
 B after Tr=    -0.000378    0.000390   -0.000009
         Rot=    1.000000    0.000128    0.000314   -0.000034 Ang=   0.04 deg.
 Requested convergence on RMS density matrix=1.00D-08 within 128 cycles.
 Requested convergence on MAX density matrix=1.00D-06.
 Requested convergence on             energy=1.00D-06.
 No special actions if energy rises.
 SCF Done:  E(RB3LYP) =  -573.605001779     A.U. after    8 cycles
            NFock=  8  Conv=0.28D-08     -V/T= 2.0048
   1 Symmetry operations used in ECPInt.
 ECPInt:  NShTT=   13530 NPrTT=   41904 LenC2=   13161 LenP2D=   31862.
 LDataN:  DoStor=T MaxTD1= 7 Len=  274
 Calling FoFJK, ICntrl=      2127 FMM=F ISym2X=0 I1Cent= 0 IOpClX= 0 NMat=1 NMatS=1 NMatT=0.
 -------------------------------------------------------------------
 Center     Atomic                   Forces (Hartrees/Bohr)
 Number     Number              X              Y              Z
 -------------------------------------------------------------------
      1        6          -0.000937268   -0.000045983   -0.000000219
      2        1           0.000943271   -0.000186624    0.000000562
      3        1           0.000000111   -0.000300219    0.000000229
      4        6          -0.000092158    0.000116657   -0.000144087
      5        6           0.000084488    0.000110292    0.000145054
      6        6           0.000385145    0.000220630    0.000068367
      7        6          -0.000383186    0.000246781   -0.000067193
      8        1           0.000163283    0.000031824   -0.000071872
      9        1          -0.000163582    0.000031925    0.000071851
     10        1          -0.000064441   -0.000111945   -0.000052334
     11        1           0.000064249   -0.000110884    0.000051946
     12        6           0.000325708    0.000466149    0.000210903
     13        6          -0.001040597   -0.003042076   -0.000488940
     14        6          -0.000305883    0.000492575   -0.000194441
     15        1          -0.000001214    0.000003983   -0.000004360
     16        8           0.000002659    0.000005382    0.000000668
     17        8           0.000713867    0.002570542    0.000284949
     18        6           0.000922948   -0.003105433    0.000342918
     19        1           0.000002467    0.000003436    0.000004772
     20        8          -0.000619869    0.002602990   -0.000158773
 -------------------------------------------------------------------
 Cartesian Forces:  Max     0.003105433 RMS     0.000804275
 -----------------------------------------------------------------------------------------------
                       Internal Coordinate Forces (Hartree/Bohr or radian)
  Cent   Atom   N1       Length/X         N2         Alpha/Y        N3         Beta/Z          J
 -----------------------------------------------------------------------------------------------
      1  C 
      2  H        1   0.000001(     1)
      3  H        1   0.000000(     2)      2  -0.000001(    20)
      4  C        1   0.000094(     3)      2  -0.000225(    21)      3   0.001621(    38)     0
      5  C        1  -0.000117(     4)      2   0.000311(    22)      3   0.001537(    39)     0
      6  C        5  -0.000145(     5)      1  -0.000338(    23)      2  -0.000403(    40)     0
      7  C        4   0.000153(     6)      1   0.000269(    24)      2  -0.000421(    41)     0
      8  H        5   0.000044(     7)      1  -0.000114(    25)      6   0.000283(    42)     0
      9  H        4  -0.000045(     8)      1   0.000114(    26)      7   0.000284(    43)     0
     10  H        6  -0.000004(     9)      5   0.000262(    27)      1  -0.000091(    44)     0
     11  H        7   0.000004(    10)      4  -0.000260(    28)      1  -0.000091(    45)     0
     12  C        1   0.000000(    11)      2  -0.000007(    29)      3   0.000001(    46)     0
     13  C       12   0.000493(    12)      1   0.000005(    30)      2   0.000001(    47)     0
     14  C       12  -0.000007(    13)      1   0.000011(    31)     13   0.000026(    48)     0
     15  H       12  -0.000006(    14)      1  -0.000001(    32)     13   0.000000(    49)     0
     16  O       13   0.000003(    15)     12  -0.000013(    33)      1   0.000002(    50)     0
     17  O       13  -0.002647(    16)     12   0.000990(    34)     16   0.000000(    51)     0
     18  C       14  -0.000497(    17)     12  -0.000021(    35)      1   0.000008(    52)     0
     19  H       14   0.000006(    18)     12  -0.000000(    36)     18   0.000001(    53)     0
     20  O       18   0.002645(    19)     14  -0.000987(    37)     12   0.000001(    54)     0
 -----------------------------------------------------------------------------------------------
 Internal  Forces:  Max     0.002646897 RMS     0.000645770

 GradGradGradGradGradGradGradGradGradGradGradGradGradGradGradGradGradGrad
 Berny optimization.
 Search for a saddle point.
 Step number   3 out of a maximum of   48
 All quantities printed in internal units (Hartrees-Bohrs-Radians)
 Swapping is turned off.
 Update second derivatives using D2CorN and points    1    2    3
 ITU=  0  0  0
     Eigenvalues ---   -0.18194   0.03056   0.03204   0.05165   0.06813
     Eigenvalues ---    0.07759   0.08504   0.10637   0.11557   0.14579
     Eigenvalues ---    0.16437   0.19006   0.21396   0.23374   0.27346
     Eigenvalues ---    0.31620   0.33344   0.34548   0.34691   0.37310
     Eigenvalues ---    0.41395   0.47251   0.54993   0.59312   0.64705
     Eigenvalues ---    0.71963   0.73082   0.73269   0.74317   0.79513
     Eigenvalues ---    0.91538   1.23605   1.37892   1.73106   1.76257
     Eigenvalues ---    2.25842   9.31172  38.11912
 Eigenvectors required to have negative eigenvalues:
                          R12       D8        D4        D19       R14
   1                    0.48692  -0.37750  -0.29515   0.29257  -0.24879
                          R6        A12       D6        D15       A15
   1                   -0.24731  -0.23080   0.21850  -0.19413  -0.19149
 RFO step:  Lambda0=8.445374677D-10 Lambda= 0.00000000D+00.
 Linear search not attempted -- option 19 set.
 Variable       Old X    -DE/DX   Delta X   Delta X   Delta X     New X
                                 (Linear)    (Quad)   (Total)
    R2        2.05430   0.00000   0.00000   0.00000   0.00000   2.05430
    R3        2.07521   0.00000   0.00000  -0.00000  -0.00000   2.07521
    R4        2.84711  -0.00002   0.00000   0.00001   0.00001   2.84712
    R6        2.65042   0.00001   0.00000  -0.00002  -0.00002   2.65041
    R8        2.04203  -0.00000   0.00000  -0.00000  -0.00000   2.04203
   R10        2.04121  -0.00000   0.00000   0.00000   0.00000   2.04121
   R12        4.98152   0.00000   0.00000   0.00009   0.00009   4.98161
   R13        2.78556  -0.00000   0.00000  -0.00000  -0.00000   2.78555
   R14        2.64688  -0.00001   0.00000  -0.00001  -0.00001   2.64687
   R15        2.03728   0.00000   0.00000  -0.00000  -0.00000   2.03727
   R16        2.64752   0.00000   0.00000   0.00000   0.00000   2.64752
   R17        2.25638  -0.00000   0.00000   0.00000   0.00000   2.25638
    A3        1.88696  -0.00000   0.00000   0.00003   0.00003   1.88699
    A4        2.02395   0.00009   0.00000  -0.00004  -0.00004   2.02391
    A6        1.86153  -0.00007   0.00000   0.00001   0.00001   1.86154
    A8        2.15761   0.00000   0.00000   0.00000   0.00000   2.15761
   A10        2.18418   0.00000   0.00000   0.00000   0.00000   2.18418
   A12        1.36271  -0.00001   0.00000  -0.00011  -0.00011   1.36260
   A13        2.30386   0.00000   0.00000   0.00005   0.00005   2.30391
   A14        1.29143   0.00001   0.00000  -0.00003  -0.00003   1.29139
   A15        1.61171  -0.00000   0.00000  -0.00005  -0.00005   1.61166
   A16        1.87759  -0.00001   0.00000   0.00000   0.00000   1.87760
   A17        2.28722   0.00000   0.00000  -0.00000  -0.00000   2.28721
   A18        1.87662  -0.00002   0.00000   0.00000   0.00000   1.87662
   A19        2.20178  -0.00000   0.00000  -0.00001  -0.00001   2.20177
    D4        2.12642   0.00008   0.00000   0.00004   0.00004   2.12646
    D6       -2.68190   0.00002   0.00000   0.00011   0.00011  -2.68179
    D8       -2.68775  -0.00000   0.00000  -0.00004  -0.00004  -2.68779
   D10       -2.93223  -0.00000   0.00000  -0.00002  -0.00002  -2.93224
   D12        2.86976   0.00000   0.00000   0.00002   0.00002   2.86978
   D13       -3.06664   0.00000   0.00000  -0.00006  -0.00006  -3.06670
   D14       -1.72696   0.00003   0.00000   0.00005   0.00005  -1.72691
   D15        2.33564   0.00000   0.00000   0.00001   0.00001   2.33565
   D16       -1.36929   0.00000   0.00000   0.00005   0.00005  -1.36923
   D17        3.14638   0.00000   0.00000   0.00001   0.00001   3.14639
   D18        2.27209   0.00001   0.00000   0.00006   0.00006   2.27215
   D19        2.61278   0.00000   0.00000  -0.00002  -0.00002   2.61276
   D20        3.03786   0.00000   0.00000  -0.00001  -0.00001   3.03785
         Item               Value     Threshold  Converged?
 Maximum Force            0.000086     0.000450     YES
 RMS     Force            0.000024     0.000300     YES
 Maximum Displacement     0.000109     0.001800     YES
 RMS     Displacement     0.000039     0.001200     YES
 Predicted change in Energy=-1.622575D-09
 Optimization completed.
    -- Stationary point found.
                       ----------------------------
                       !   Optimized Parameters   !
                       ! (Angstroms and Degrees)  !
 ----------------------                            ----------------------
 !      Name          Value   Derivative information (Atomic Units)     !
 ------------------------------------------------------------------------
 !       R2          1.0871   -DE/DX =    0.0                           !
 !       R3          1.0982   -DE/DX =    0.0                           !
 !       R4          1.5066   -DE/DX =    0.0                           !
 !       R6          1.4025   -DE/DX =    0.0                           !
 !       R8          1.0806   -DE/DX =    0.0                           !
 !       R10         1.0802   -DE/DX =    0.0                           !
 !       R12         2.6361   -DE/DX =    0.0                           !
 !       R13         1.4741   -DE/DX =    0.0                           !
 !       R14         1.4007   -DE/DX =    0.0                           !
 !       R15         1.0781   -DE/DX =    0.0                           !
 !       R16         1.401    -DE/DX =    0.0                           !
 !       R17         1.194    -DE/DX =    0.0                           !
 !       A3        108.1146   -DE/DX =    0.0                           !
 !       A4        115.9638   -DE/DX =    0.0001                        !
 !       A6        106.6579   -DE/DX =   -0.0001                        !
 !       A8        123.622    -DE/DX =    0.0                           !
 !       A10       125.144    -DE/DX =    0.0                           !
 !       A12        78.0775   -DE/DX =    0.0                           !
 !       A13       132.0016   -DE/DX =    0.0                           !
 !       A14        73.9933   -DE/DX =    0.0                           !
 !       A15        92.3442   -DE/DX =    0.0                           !
 !       A16       107.5782   -DE/DX =    0.0                           !
 !       A17       131.0478   -DE/DX =    0.0                           !
 !       A18       107.5222   -DE/DX =    0.0                           !
 !       A19       126.1525   -DE/DX =    0.0                           !
 !       D4        121.8348   -DE/DX =    0.0001                        !
 !       D6       -153.6615   -DE/DX =    0.0                           !
 !       D8       -153.9969   -DE/DX =    0.0                           !
 !       D10      -168.0043   -DE/DX =    0.0                           !
 !       D12       164.4251   -DE/DX =    0.0                           !
 !       D13      -175.7055   -DE/DX =    0.0                           !
 !       D14       -98.9474   -DE/DX =    0.0                           !
 !       D15       133.8223   -DE/DX =    0.0                           !
 !       D16       -78.4544   -DE/DX =    0.0                           !
 !       D17       180.2744   -DE/DX =    0.0                           !
 !       D18       130.1811   -DE/DX =    0.0                           !
 !       D19       149.7015   -DE/DX =    0.0                           !
 !       D20       174.0564   -DE/DX =    0.0                           !
 ------------------------------------------------------------------------
 GradGradGradGradGradGradGradGradGradGradGradGradGradGradGradGradGradGrad

 ---------------------------------------------------------------------------------------------------
                            Z-MATRIX (ANGSTROMS AND DEGREES)
   CD    Cent   Atom    N1       Length/X        N2       Alpha/Y        N3        Beta/Z          J
 ---------------------------------------------------------------------------------------------------
      1      1  C 
      2      2  H        1   1.087088(     1)
      3      3  H        1   1.098155(     2)      2  108.115(    20)
      4      4  C        1   1.506627(     3)      2  115.964(    21)      3  121.835(    38)      0
      5      5  C        1   1.506627(     4)      2  115.964(    22)      3 -121.835(    39)      0
      6      6  C        5   1.402543(     5)      1  106.658(    23)      2 -153.661(    40)      0
      7      7  C        4   1.402543(     6)      1  106.658(    24)      2  153.661(    41)      0
      8      8  H        5   1.080595(     7)      1  123.622(    25)      6 -153.997(    42)      0
      9      9  H        4   1.080595(     8)      1  123.622(    26)      7  153.997(    43)      0
     10     10  H        6   1.080162(     9)      5  125.144(    27)      1 -168.004(    44)      0
     11     11  H        7   1.080162(    10)      4  125.144(    28)      1  168.004(    45)      0
     12     12  C        1   2.636108(    11)      2   78.077(    29)      3  164.425(    46)      0
     13     13  C       12   1.474053(    12)      1  132.002(    30)      2 -175.706(    47)      0
     14     14  C       12   1.400669(    13)      1   73.993(    31)     13  -98.947(    48)      0
     15     15  H       12   1.078080(    14)      1   92.344(    32)     13  133.822(    49)      0
     16     16  O       13   1.401005(    15)     12  107.578(    33)      1  -78.454(    50)      0
     17     17  O       13   1.194025(    16)     12  131.048(    34)     16  180.274(    51)      0
     18     18  C       14   1.474053(    17)     12  107.522(    35)      1  130.181(    52)      0
     19     19  H       14   1.078080(    18)     12  126.152(    36)     18  149.702(    53)      0
     20     20  O       18   1.194025(    19)     14  131.048(    37)     12  174.056(    54)      0
 ---------------------------------------------------------------------------------------------------
                         Z-Matrix orientation:                         
 ---------------------------------------------------------------------
 Center     Atomic      Atomic             Coordinates (Angstroms)
 Number     Number       Type             X           Y           Z
 ---------------------------------------------------------------------
      1          6           0        0.000000    0.000000    0.000000
      2          1           0        0.000000    0.000000    1.087088
      3          1           0        1.043727    0.000000   -0.341436
      4          6           0       -0.714496   -1.150801   -0.659606
      5          6           0       -0.714496    1.150801   -0.659606
      6          6           0       -1.133556    0.695545   -1.918279
      7          6           0       -1.133556   -0.695545   -1.918279
      8          1           0       -0.520001    2.188052   -0.427298
      9          1           0       -0.520001   -2.188052   -0.427298
     10          1           0       -1.511189    1.322945   -2.712327
     11          1           0       -1.511189   -1.322945   -2.712327
     12          6           0       -2.484533   -0.692521    0.544591
     13          6           0       -3.609534   -1.091250   -0.320405
     14          6           0       -2.459078    0.707655    0.571660
     15          1           0       -2.173413   -1.352354    1.338367
     16          8           0       -4.146988    0.075225   -0.880132
     17          8           0       -4.066021   -2.166613   -0.567207
     18          6           0       -3.571954    1.188059   -0.267120
     19          1           0       -2.113030    1.321817    1.387326
     20          8           0       -3.989612    2.289925   -0.459861
 ---------------------------------------------------------------------
                    Distance matrix (angstroms):
                    1          2          3          4          5
     1  C    0.000000
     2  H    1.087088   0.000000
     3  H    1.098155   1.769194   0.000000
     4  C    1.506627   2.210381   2.125305   0.000000
     5  C    1.506627   2.210381   2.125305   2.301601   0.000000
     6  C    2.334208   3.286482   2.776828   2.273513   1.402543
     7  C    2.334208   3.286482   2.776828   1.402543   2.273513
     8  H    2.289226   2.711335   2.690760   3.352571   1.080595
     9  H    2.289226   2.711335   2.690760   1.080595   3.352571
    10  H    3.374995   4.297607   3.728122   3.311767   2.208623
    11  H    3.374995   4.297607   3.728122   2.208623   3.311767
    12  C    2.636108   2.635677   3.703140   2.189324   2.825059
    13  C    3.784472   4.024997   4.779551   2.915451   3.677377
    14  C    2.621953   2.610270   3.688382   2.830802   2.180817
    15  H    2.888565   2.572105   3.873059   2.482128   3.519392
    16  O    4.240024   4.590547   5.219135   3.651544   3.603818
    17  O    4.642032   4.895246   5.554701   3.503303   4.716619
    18  C    3.773817   4.000527   4.766709   3.713405   2.884528
    19  H    2.852502   2.510426   3.834179   3.501381   2.484970
    20  O    4.623011   4.853227   5.531029   4.754459   3.473311
                    6          7          8          9         10
     6  C    0.000000
     7  C    1.391090   0.000000
     8  H    2.197056   3.303726   0.000000
     9  H    3.303726   2.197056   4.376104   0.000000
    10  H    1.080162   2.201686   2.636706   4.304754   0.000000
    11  H    2.201686   1.080162   4.304754   2.636706   2.645890
    12  C    3.133304   2.809070   3.619621   2.653406   3.951837
    13  C    3.446202   2.973256   4.506714   3.280186   3.994081
    14  C    2.820807   3.150520   2.636193   3.625336   3.472988
    15  H    3.985089   3.481156   4.287869   2.559245   4.899376
    16  O    3.247048   3.279117   4.221864   4.299130   3.444007
    17  O    4.314707   3.548068   5.617557   3.548844   4.827600
    18  C    2.985746   3.495722   3.215597   4.553921   3.200622
    19  H    3.504085   3.994514   2.565339   4.260256   4.143593
    20  O    3.581353   4.381446   3.471259   5.664940   3.485862
                   11         12         13         14         15
    11  H    0.000000
    12  C    3.457216   0.000000
    13  C    3.190302   1.474053   0.000000
    14  C    3.975726   1.400669   2.314172   0.000000
    15  H    4.104574   1.078080   2.209558   2.216548   0.000000
    16  O    3.501322   2.320135   1.401005   2.314456   3.294650
    17  O    3.441000   2.431079   1.194025   3.484351   2.806456
    18  C    4.065824   2.319039   2.280242   1.474053   3.314695
    19  H    4.915702   2.214899   3.313422   1.078080   2.675301
    20  O    4.926359   3.488434   3.405327   2.431079   4.449539
                   16         17         18         19         20
    16  O    0.000000
    17  O    2.265020   0.000000
    18  C    1.394578   3.404112   0.000000
    19  H    3.291253   4.450115   2.209874   0.000000
    20  O    2.259710   4.458486   1.194025   2.805511   0.000000
 Symmetry turned off by external request.
 Stoichiometry    C9H8O3
 Framework group  C1[X(C9H8O3)]
 Deg. of freedom    54
 Full point group                 C1      NOp   1
 Rotational constants (GHZ):           1.4035331           1.0717453           0.7950463
 1\1\GINC-BHC0161\PTS\RB3LYP\def2TZVP\C9H8O3\DHANAWAY\12-Jun-2022\1\\# 
 Opt=(TS, CalcFC, noeigentest, Z-matrix, MaxStep=10) Field=read NoSymm 
[...]
 ,-0.00025325,0.00033721,-0.00097024,0.00042315,-0.00342535,0.00019207,
 -0.00394888,-0.04713477,-0.05224005,-0.02782200,0.00150132,-0.00430240
 ,0.00284093,0.00420192,-0.00308586,-0.00144475,0.04367281,-0.00696867,
 -0.00869948,-0.00581170,0.00000165,0.00015995,0.00038861,0.00037408,-0
 .00014864,-0.00007491,0.00173310,-0.00253844,0.00168746,-0.04717365,-0
 .32433707,-0.06353564,0.00024403,-0.00192455,0.00220257,-0.00100094,0.
 00010028,-0.00074723,0.05237008,0.33740216,0.00674833,0.01030452,0.004
 02157,0.00059013,-0.00071989,0.00013591,-0.00032796,-0.00008609,0.0004
 1349,-0.00139376,0.00434479,-0.00157078,-0.02274893,-0.05684532,-0.060
 96199,-0.00383863,-0.02854178,0.00119736,-0.00357043,-0.00106531,-0.00
 531049,0.02060348,0.06721738,0.06090082,0.00528894,-0.01514883,0.00663
 889,-0.00007343,0.00006910,-0.00026294,0.00035001,0.00097568,0.0004279
 1,-0.04782556,0.05252370,-0.02733062,-0.00340959,-0.00020272,-0.003894
 25,0.00421523,0.00297680,-0.00149450,0.00161739,0.00440568,0.00258830,
 0.00203853,-0.00037207,-0.00044256,0.04401532,0.00664670,-0.00860308,0
 .00565043,0.00000367,0.00016676,-0.00037073,-0.00036649,-0.00016279,0.
 00006404,0.04745138,-0.32572505,0.06375592,-0.00167338,-0.00233054,-0.
 00161614,0.00096219,0.00016248,0.00064403,-0.00025875,-0.00161906,-0.0
 0203520,0.00036302,-0.00043633,0.00068767,-0.05228055,0.33800943,0.006
 57516,-0.01044880,0.00410803,0.00060044,0.00072749,0.00014389,-0.00034
 279,0.00005702,0.00040637,-0.02254095,0.05704783,-0.06142500,-0.001363
 70,-0.00432944,-0.00156250,-0.00355799,0.00108341,-0.00521987,-0.00382
 712,0.02844291,0.00111200,-0.00044909,-0.00073288,0.00136253,0.0206143
 8,-0.06736153,0.06118223,0.00429237,0.00028560,-0.00398362,-0.00030368
 ,0.00098466,-0.00061879,0.00035515,-0.00087576,0.00080102,0.00476336,-
 0.00088541,-0.00238255,0.00059695,0.00538997,-0.00421351,-0.07580899,0
 .06175217,-0.08250046,0.00336057,-0.00233365,0.00137645,-0.00219276,-0
 .00001529,0.00161699,0.00037090,-0.00017228,0.00040486,0.06668721,-0.0
 0047330,-0.00093180,-0.00316785,-0.00029838,0.00075084,-0.00027478,0.0
 0005243,-0.00005778,0.00003410,0.00036552,-0.00599953,0.00025820,-0.00
 582227,0.01142769,-0.00874020,0.06002323,-0.15665107,0.12121937,0.0100
 0250,-0.00691415,0.02263965,0.00010474,0.00017613,0.00095385,0.0003505
 4,-0.00005207,0.00139307,-0.06471124,0.15729724,-0.00161806,-0.0018721
 7,-0.00278500,-0.00069710,0.00067768,-0.00004842,-0.00029880,0.0003611
 9,-0.00035292,-0.00270618,-0.00150209,0.00122066,-0.00914015,0.0174560
 8,-0.01000667,-0.07847647,0.12142211,-0.21201900,0.00126843,-0.0030441
 9,0.00615618,0.00130696,-0.00052383,0.00010691,0.00017399,-0.00004357,
 0.00019314,0.08908755,-0.13331708,0.21755235,0.00430784,-0.00030509,-0
 .00391335,-0.00030803,-0.00097376,-0.00061192,0.00035554,0.00087089,0.
 00079654,0.00076457,-0.00535046,-0.00424115,0.00477440,0.00089609,-0.0
 0248006,0.00354877,0.00246816,0.00145106,-0.07656157,-0.06183900,-0.08
 247764,0.00038815,0.00019422,0.00042690,-0.00217095,-0.00002181,0.0016
 1314,-0.00248884,-0.00039815,0.00114517,0.06703865,0.00051036,-0.00090
 606,0.00321187,0.00030335,0.00075746,0.00028541,-0.00005146,-0.0000483
 2,-0.00002943,0.00582355,0.01158033,0.00877676,-0.00035837,-0.00589276
 ,-0.00023269,-0.00990546,-0.00702663,-0.02242277,-0.06022048,-0.157035
 25,-0.12162725,-0.00035664,-0.00008321,-0.00137635,-0.00008571,0.00017
 111,-0.00091943,0.00039518,0.00082712,0.00053326,0.06471688,0.15753119
 ,-0.00162504,0.00186034,-0.00277883,-0.00068835,-0.00067351,-0.0000467
 1,-0.00029513,-0.00035550,-0.00034687,-0.00922806,-0.01730643,-0.00998
 615,-0.00269224,0.00156122,0.00125923,0.00126928,0.00310761,0.00636071
 ,-0.07844281,-0.12174749,-0.21264065,0.00017086,0.00004798,0.00021734,
 0.00129854,0.00049132,0.00011358,0.00114839,-0.00053410,-0.00044086,0.
 08907018,0.13338711,0.21782763,-0.02981324,-0.00757933,0.00959198,-0.0
 0068623,-0.00069177,0.00147305,-0.00189796,-0.00346166,0.00000068,0.03
 866072,-0.00557145,-0.05758712,0.00207785,-0.00247368,-0.01408167,0.00
 077067,0.01998670,0.01372993,-0.00028181,-0.02763274,0.02560526,-0.001
 10475,0.00051688,0.00034129,-0.00594724,-0.00053672,0.00266228,0.00071
 687,0.00032286,-0.00019120,-0.00052701,-0.00019277,0.00060838,0.293748
 63,0.00988869,-0.00081325,-0.00169473,-0.00075206,0.00001720,-0.000407
 44,0.00172466,-0.00126858,0.00079398,-0.02785993,-0.01159713,0.0431331
 7,-0.03298492,-0.00707759,0.04681982,-0.00708752,-0.03272350,-0.021857
 37,-0.00302910,0.02846712,-0.02802971,0.00149911,-0.00054966,-0.000231
 95,0.00675217,0.00034397,-0.00429894,0.00062262,-0.00042017,-0.0004930
 2,0.00019518,0.00054219,-0.00001730,0.01810185,0.64979086,0.00672098,0
 .00050623,-0.00103483,-0.00113210,-0.00126133,0.00012322,-0.00009528,-
 0.00068621,0.00051696,-0.02497051,0.00534991,0.01990810,-0.00808141,0.
 00309768,0.01038943,0.00132130,-0.01307675,-0.01256120,0.00488986,0.02
 206300,-0.02510690,0.00114313,-0.00019819,-0.00038547,0.00046430,0.000
 68802,-0.00004113,-0.00056310,-0.00053116,0.00041215,-0.00005639,0.000
 10230,0.00002976,0.23904818,-0.16715046,0.43249084,-0.00014972,0.00107
 045,-0.00076246,-0.00031466,0.00007426,0.00020907,0.00008337,0.0007969
 9,0.00007932,-0.02074319,-0.00159383,0.00936734,0.00308938,-0.00012157
 ,-0.00456303,0.00200122,0.00079763,-0.00212895,-0.00158198,0.00171575,
 0.00210658,-0.00000985,0.00008953,0.00020820,0.00222647,0.00038074,-0.
 00091075,-0.00016832,0.00029787,-0.00000782,0.00008743,-0.00015193,-0.
 00032633,-0.13673474,-0.03175636,-0.07179907,0.46034019,0.00369622,-0.
 00024866,-0.00041368,-0.00031857,-0.00020284,-0.00038140,0.00045785,-0
 .00035722,0.00000299,-0.00457917,-0.00043070,0.00355672,-0.00462023,-0
 .00277603,0.00291194,-0.00025000,-0.00101341,-0.00033587,0.00060953,0.
 00278648,-0.00092488,0.00021519,-0.00016901,-0.00007039,0.00255559,-0.
 00013628,-0.00032962,-0.00056406,-0.00038964,0.00056393,0.00020973,0.0
 0032457,-0.00106963,-0.00837230,-0.08630623,-0.00246773,0.26132146,0.8
 6404319,0.00164879,0.00188367,-0.00142233,0.00006238,0.00038223,-0.000
 42810,0.00074507,0.00151019,-0.00075677,-0.00309861,0.00013344,0.00840
 442,0.00758160,-0.00011078,-0.00942586,0.00389205,0.00442262,-0.000059
 66,0.00218556,0.00123770,0.00105862,-0.00014641,0.00019455,0.00011407,
 0.00148743,0.00009271,-0.00060463,-0.00033747,0.00027072,0.00007751,0.
 00071247,-0.00059609,-0.00102314,-0.05731974,-0.00348147,-0.12511629,0
 .17900352,0.14242377,0.34475291,-0.03062603,0.00782056,0.00989983,-0.0
 0091004,0.00076915,0.00154746,-0.00202314,0.00351354,0.00004239,0.0031
 6269,0.00254289,-0.01485796,0.03816723,0.00530496,-0.05933029,0.000290
 07,0.02835612,0.02625512,0.00071350,-0.02102146,0.01419873,-0.00623741
 ,0.00040966,0.00277544,-0.00115661,-0.00053499,0.00034578,-0.00052331,
 0.00020112,0.00058790,0.00063510,-0.00033045,-0.00017029,-0.07311018,0
 .02748163,-0.01759579,-0.01019188,-0.01848509,-0.01642093,0.30013005,-
 0.00936128,-0.00109602,0.00157764,0.00084922,-0.00003287,0.00025165,-0
 .00165934,-0.00131558,-0.00087563,0.03313837,-0.00668063,-0.04599053,0
 .02657936,-0.01174535,-0.04298905,0.00352146,0.02765694,0.02781417,0.0
 0687157,-0.03239209,0.02137371,-0.00685768,0.00036532,0.00438521,-0.00
 147267,-0.00049817,0.00025122,-0.00018320,0.00057626,-0.00005956,-0.00
 070708,-0.00036457,0.00055519,-0.03660196,-0.31354163,0.01492964,-0.01
 678280,-0.02344726,-0.02739168,-0.01223201,0.63783011,0.00710343,-0.00
 062972,-0.00106394,-0.00119035,0.00131107,0.00007798,-0.00011705,0.000
 52875,0.00048548,-0.00748151,-0.00278796,0.00924125,-0.02527679,-0.005
 62182,0.02026643,0.00506826,-0.02167622,-0.02494582,0.00114237,0.01309
 463,-0.01201188,0.00062877,-0.00071040,-0.00009292,0.00099844,0.000145
 01,-0.00030797,-0.00002957,-0.00013849,0.00000866,-0.00062367,0.000498
 53,0.00041578,-0.01920230,-0.02348587,-0.09692426,-0.00259289,-0.02048
 244,-0.00020868,0.24804138,0.16668323,0.44027851,0.00211113,0.00055161
 ,0.00008598,-0.00039198,-0.00026126,-0.00024298,0.00032445,0.00029051,
 -0.00009782,-0.00688371,-0.00296213,0.01434662,-0.00237172,-0.00149330
 ,0.00601256,-0.00124693,-0.00507398,-0.00234201,-0.00158028,0.00415593
 ,-0.00350459,-0.00001840,-0.00000437,-0.00002029,0.00080906,0.00022826
 ,-0.00009042,0.00015558,-0.00002722,-0.00016306,0.00011771,0.00011151,
 -0.00010492,-0.05436079,0.03891486,-0.07693867,-0.00348696,0.01511885,
 -0.01435779,0.00436924,0.00484599,0.00037386,0.06633860,-0.00029079,-0
 .00008662,0.00067722,-0.00035337,-0.00014226,-0.00009487,-0.00008758,-
 0.00002542,-0.00011751,0.00148609,0.00085676,-0.00288716,0.00108432,-0
 .00078137,-0.00147725,0.00031191,0.00124914,0.00012753,-0.00011129,-0.
 00086312,0.00090744,-0.00023832,-0.00000140,0.00017506,0.00016858,0.00
 030488,-0.00032914,-0.00009178,-0.00002498,0.00003347,0.00000638,-0.00
 000585,-0.00000791,0.04804245,-0.16198869,0.13638917,0.00099349,0.0076
 0730,-0.00843442,0.00956197,-0.00958702,0.02176122,-0.05541319,0.16610
 729,-0.00191346,-0.00009199,0.00033354,0.00003675,0.00007578,0.0006475
 7,-0.00015734,-0.00028464,0.00031744,0.00481668,0.00201162,-0.00994751
 ,0.00147128,-0.00012044,-0.00295112,0.00069899,0.00274540,0.00125682,0
 .00065532,-0.00254940,0.00240738,-0.00006504,-0.00003289,0.00010175,-0
 .00027062,-0.00054848,0.00014042,-0.00004488,-0.00003404,0.00009613,-0
 .00008005,-0.00005006,0.00006770,-0.08489826,0.14372458,-0.20674363,0.
 00281440,0.01284732,-0.00782527,0.00204553,-0.00856561,0.00933311,0.07
 937310,-0.14561472,0.21222354,-0.00192595,0.00001216,-0.00010610,0.000
 31584,0.00000455,0.00028370,-0.00017409,0.00005211,-0.00022595,0.00253
 192,-0.00029558,-0.00099791,0.00304217,0.00022062,-0.00149700,0.000259
 82,0.00007791,0.00021508,0.00024419,-0.00015320,0.00025370,-0.00017855
 ,0.00010191,-0.00002045,-0.00007568,-0.00008961,-0.00005417,-0.0000889
 9,-0.00002402,0.00015637,-0.00006406,0.00003067,0.00014668,-0.01546180
 ,0.02519962,-0.03150369,-0.12386918,0.01283515,-0.05826831,-0.01798137
 ,-0.02379393,-0.03364246,-0.00380378,-0.00352434,-0.00314796,0.2326366
 9,0.00012966,0.00150931,0.00004318,-0.00001296,0.00018814,-0.00001204,
 0.00001542,0.00128754,-0.00000312,-0.00659186,0.00002470,0.00586114,0.
 00644412,-0.00003947,-0.00614036,0.00099632,0.00063146,-0.00119748,-0.
 00104003,0.00038599,0.00132768,-0.00028972,0.00040269,0.00039172,0.000
 32440,0.00037506,-0.00039384,0.00006613,0.00005470,-0.00029671,-0.0001
 1155,0.00003495,0.00028288,0.02299232,-0.01243102,0.01326517,0.0213069
 8,-0.06304220,0.02174474,-0.02205988,-0.00854237,-0.01192281,0.0015543
 8,0.00317721,0.00146325,0.00120107,0.35646365,-0.00178579,0.00005309,0
 .00063866,0.00005108,-0.00000025,0.00077648,-0.00056460,0.00002218,0.0
 0068674,0.00034715,0.00025043,-0.00316877,0.00067793,-0.00023143,-0.00
 349471,0.00088712,0.00112058,0.00144850,0.00088281,-0.00101028,0.00150
 230,-0.00023162,0.00015253,0.00009859,-0.00024405,-0.00015366,0.000096
 83,-0.00022753,-0.00044945,0.00031751,-0.00022202,0.00038569,0.0002533
 5,-0.02839811,0.01302019,-0.01295332,-0.05862325,0.01599533,-0.1108903
 4,-0.03041374,-0.01215295,-0.01446571,-0.00379508,-0.00106335,0.000022
 56,0.16766538,0.00390873,0.20740647,-0.00029625,-0.00010619,0.00052883
 ,0.00014508,-0.00006566,0.00000375,-0.00013286,-0.00036081,0.00004220,
 0.00372933,-0.00076310,-0.00239841,-0.00087823,-0.00035020,0.00117165,
 -0.00070850,-0.00083870,0.00009431,-0.00039976,0.00033287,-0.00091057,
 -0.00001760,0.00000688,0.00002115,-0.00024357,-0.00003558,0.00013346,0
 .00009607,-0.00008687,-0.00001831,-0.00003662,-0.00007216,0.00004749,-
 0.00838149,-0.03795273,-0.01270024,-0.19983198,-0.23596316,-0.07427085
 ,-0.00304534,0.00080894,-0.00684630,0.00042954,-0.00004930,-0.00012940
 ,0.02773750,0.00505450,0.01003671,0.18328363,-0.00081656,-0.00017682,0
 .00044472,0.00019474,-0.00006239,0.00006698,-0.00014704,-0.00016694,0.
 00010320,0.00472955,-0.00000294,-0.00225643,-0.00036818,0.00037688,0.0
 0158486,-0.00094267,-0.00164818,-0.00088906,-0.00099555,0.00033407,-0.
 00093953,-0.00017298,0.00007962,0.00014944,-0.00176790,0.00008278,0.00
 042721,0.00037222,0.00008523,-0.00029042,-0.00012689,-0.00010713,0.000
 66906,-0.02801755,-0.02029265,-0.01245709,-0.24488996,-0.60913518,-0.1
 3587778,-0.00286052,0.00425807,-0.00456758,0.00027638,-0.00048045,-0.0
 0236730,-0.01030674,-0.10769250,0.00015618,0.27102196,0.72829280,-0.00
 000429,-0.00048348,0.00021420,0.00007543,-0.00003030,0.00012514,-0.000
 19226,-0.00026267,0.00019668,0.00125384,0.00002486,-0.00101245,-0.0017
 1291,-0.00013582,0.00283367,-0.00105849,-0.00187785,-0.00042328,-0.000
 17761,0.00015214,-0.00116084,-0.00013169,-0.00000500,0.00010483,-0.000
 43714,0.00003431,-0.00000319,0.00016206,-0.00006083,-0.00009772,-0.000
 30204,0.00021068,0.00061047,-0.01709741,-0.02814637,0.00888185,-0.0769
 6411,-0.13109910,-0.12002126,-0.00163719,0.00353554,-0.00202692,0.0024
 5652,0.00105574,0.00100848,0.01261883,0.01600161,0.02389897,0.08895326
 ,0.14039134,0.08820383,-0.00016776,-0.00090419,-0.00093403,-0.00032228
 ,-0.00005517,0.00026587,0.00009501,-0.00084268,0.00011576,0.00311638,0
 .00003388,-0.00428902,-0.02127238,0.00173286,0.01085316,-0.00147775,-0
 .00216905,0.00162075,0.00195877,-0.00038448,-0.00240342,0.00227084,-0.
 00028215,-0.00090288,-0.00002476,-0.00003371,0.00020317,0.00009306,0.0
 0020277,-0.00037456,-0.00011161,-0.00025895,0.00001443,-0.00848105,0.0
 1635220,-0.00106258,0.02950016,-0.02587757,0.03716489,-0.13500574,0.03
 625141,-0.07073971,0.00157301,-0.00420631,-0.00408648,-0.12737084,-0.0
 1815520,-0.06165818,-0.00146460,0.01752917,-0.00782627,0.44377835,-0.0
 0392131,-0.00018602,0.00038318,0.00035312,-0.00016914,0.00039800,-0.00
 050797,-0.00017804,0.00002686,0.00410762,-0.00292604,-0.00195867,0.005
 53627,-0.00032413,-0.00433734,-0.00051189,0.00258462,0.00088214,-0.000
 13924,-0.00080492,0.00031548,-0.00303442,-0.00029018,0.00044167,-0.000
 19312,-0.00016255,0.00003574,-0.00009612,0.00035757,0.00107711,0.00057
 709,-0.00037399,-0.00052884,0.01881541,-0.02600680,0.01879209,0.018547
 94,-0.10179267,0.01921117,0.01340007,-0.08957507,0.00697634,-0.0014655
 3,-0.00595014,-0.00378353,-0.01075138,-0.06847437,-0.01454830,0.000646
 49,0.01931260,-0.00146793,-0.25217117,0.90797865,0.00129793,-0.0019239
 4,-0.00134494,0.00008443,-0.00037466,-0.00040327,0.00071315,-0.0014692
 2,-0.00079160,0.00790067,-0.00007025,-0.00963921,-0.00237695,-0.000305
 76,0.00784197,0.00243965,-0.00148596,0.00080162,0.00385522,-0.00431299
 ,-0.00003571,0.00133149,-0.00001336,-0.00052692,-0.00014086,-0.0001550
 7,0.00010582,0.00065823,0.00062385,-0.00106054,-0.00030254,-0.00021580
 ,0.00010271,-0.01468362,0.02786457,0.00146959,0.03725682,-0.02754416,0
 .02578434,-0.05736478,0.00611845,-0.12369405,-0.00277651,-0.00089899,0
 .00003564,-0.06108822,-0.01980915,-0.11528283,-0.00668662,0.01978628,-
 0.00195443,0.16272659,-0.11860062,0.33356604,0.00190215,-0.00056657,0.
 00020497,-0.00046565,0.00029988,-0.00015641,0.00033476,-0.00028708,-0.
 00009307,-0.00218294,0.00134731,0.00565517,-0.00621264,0.00287909,0.01
 408573,-0.00168749,-0.00385184,-0.00328069,-0.00108677,0.00480718,-0.0
 0212524,0.00085261,-0.00021496,-0.00013049,0.00000237,-0.00000044,-0.0
 0003596,0.00010960,-0.00011184,-0.00008904,0.00017387,0.00002052,-0.00
 017472,0.00375689,-0.00487462,-0.00039551,0.00181722,0.00132571,-0.002
 76936,-0.06060077,-0.04149547,-0.08546282,-0.00182716,0.00031725,0.001
 30323,-0.00369868,-0.00102072,-0.00385810,-0.00037539,-0.00087726,0.00
 042934,-0.00418778,-0.01461374,-0.01444511,0.07295166,0.00030310,-0.00
 006519,-0.00071289,0.00042104,-0.00015098,0.00009758,0.00007790,-0.000
 01911,0.00012121,-0.00101091,-0.00080026,0.00112525,-0.00127143,0.0008
 1526,0.00268971,0.00006928,-0.00062704,-0.00072486,-0.00021048,0.00095
 468,0.00004596,-0.00012576,0.00026547,0.00032240,0.00022447,0.00000241
 ,-0.00016434,-0.00001165,-0.00000372,0.00001462,0.00008973,-0.00002886
 ,-0.00002522,-0.01067283,-0.00827703,-0.02255709,0.00409016,-0.0064959
 5,0.00077657,-0.04985640,-0.14730374,-0.12979946,-0.00021949,0.0013402
 8,0.00106440,0.00390068,0.00310671,0.00135230,-0.00250794,-0.00056385,
 -0.00094546,-0.00037092,0.00807651,0.00958049,0.05717455,0.15015046,-0
 .00192371,0.00015602,0.00023037,0.00002950,-0.00009158,0.00075568,-0.0
 0016238,0.00029487,0.00037522,0.00127897,0.00005014,-0.00269996,0.0043
 1292,-0.00193679,-0.00993192,0.00076699,0.00237235,0.00220804,0.000612
 17,-0.00250753,0.00116625,-0.00027403,0.00056247,0.00011330,-0.0000372
 6,0.00003504,0.00009338,-0.00008411,0.00004807,0.00007254,-0.00004938,
 0.00003472,0.00009996,0.00194968,0.00740115,0.00838273,-0.00374588,0.0
 0364638,0.00034108,-0.09352735,-0.13661435,-0.21524858,0.00129991,-0.0
 0103931,-0.00071625,-0.00317954,-0.00115536,0.00005830,0.00141574,-0.0
 0025440,0.00012693,0.00242643,-0.01239615,-0.00793486,0.08894116,0.138
 95055,0.22149282,-0.00029508,0.00005230,0.00058578,0.00013833,0.000047
 12,-0.00000513,-0.00013747,0.00035756,0.00003707,-0.00085022,0.0003716
 7,0.00118638,0.00346610,0.00091152,-0.00259188,-0.00026426,-0.00023225
 ,-0.00082012,-0.00072045,0.00080732,0.00010121,-0.00007889,-0.00000991
 ,0.00006449,-0.00000683,-0.00003166,0.00002026,-0.00002280,0.00002972,
 0.00005440,0.00007665,0.00007237,-0.00002633,-0.00294335,-0.00043534,-
 0.00669341,-0.00206300,0.00068486,-0.00749429,-0.00605607,0.03828108,-
 0.01015112,-0.00025660,0.00239385,0.00157820,0.02792484,-0.01080338,0.
 00947388,0.00039104,-0.00183423,0.00159211,-0.18249906,0.22542188,-0.0
 5839898,0.00042415,-0.00009309,-0.00004985,0.16377295,0.00095217,-0.00
 013192,-0.00046476,-0.00021391,-0.00006210,-0.00005546,0.00017698,-0.0
 0022706,-0.00010325,0.00044763,0.00039547,-0.00203653,-0.00496119,-0.0
 0019260,0.00262666,0.00091156,0.00039571,0.00093173,0.00117129,-0.0018
 7966,0.00104382,0.00196246,0.00022635,-0.00043663,0.00019685,0.0001070
 5,-0.00015793,0.00007188,-0.00010785,-0.00069682,-0.00039057,0.0001037
 3,0.00030325,0.00302629,0.00413258,0.00520279,-0.01618680,0.02118174,-
 0.01839185,0.02801913,-0.02456434,0.01082400,0.00087218,-0.00070554,0.
 00011075,0.00530235,-0.10742018,-0.00680757,0.00128077,-0.01249301,0.0
 0310860,0.23360927,-0.64109590,0.11320629,-0.00025696,-0.00037605,0.00
 244370,-0.25599138,0.76271357,0.00007672,0.00047393,0.00013840,0.00006
 742,0.00002348,0.00011983,-0.00018043,0.00024562,0.00019328,-0.0016896
 4,0.00016049,0.00279748,0.00105087,-0.00002171,-0.00081398,-0.00027306
 ,-0.00013024,-0.00101592,-0.00098497,0.00178005,-0.00039501,-0.0004211
 6,-0.00006751,-0.00003991,-0.00013740,-0.00000410,0.00010608,-0.000269
 97,-0.00019288,0.00059740,0.00014475,0.00004355,-0.00009500,-0.0015512
 7,-0.00346285,-0.00173761,-0.00862070,0.00317052,-0.00275062,-0.014421
 26,0.02716370,0.01088356,0.00048561,0.00083776,0.00019171,0.01239200,-
 0.02335922,0.02305043,0.00151216,-0.00387968,0.00049505,-0.06111392,0.
 10908161,-0.10703936,0.00239693,-0.00121171,0.00101498,0.07153732,-0.1
 1065079,0.07429921\\0.00093725,0.00004598,0.00000024,-0.00094327,0.000
 18662,-0.00000059,-0.00000011,0.00030022,-0.00000023,0.00009216,-0.000
 11666,0.00014410,-0.00008448,-0.00011029,-0.00014504,-0.00038514,-0.00
 022058,-0.00006834,0.00038320,-0.00024682,0.00006722,-0.00016329,-0.00
 003184,0.00007187,0.00016358,-0.00003193,-0.00007186,0.00006443,0.0001
 1195,0.00005232,-0.00006426,0.00011086,-0.00005197,-0.00032572,-0.0004
 6610,-0.00021088,0.00104062,0.00304221,0.00048894,0.00030590,-0.000492
 62,0.00019448,0.00000121,-0.00000397,0.00000434,-0.00000266,-0.0000054
 5,-0.00000068,-0.00071389,-0.00257059,-0.00028496,-0.00092294,0.003105
 43,-0.00034291,-0.00000248,-0.00000346,-0.00000481,0.00061987,-0.00260
 299,0.00015877\\\@


 THERE IS NO SCIENCE WITHOUT FANCY, NOR ART WITHOUT FACTS.
     -- VLADIMIR NABAKOV
 Job cpu time:       0 days  7 hours  0 minutes 39.3 seconds.
 Elapsed time:       0 days  0 hours 35 minutes 12.9 seconds.
 File lengths (MBytes):  RWF=    290 Int=      0 D2E=      0 Chk=     32 Scr=      1
 Normal termination of Gaussian 16 at Sun Jun 12 02:34:04 2022.
