 Entering Gaussian System, Link 0=g16
 Input=int.gjf
 Output=int.out
 Initial command:
 /software/gaussian/g16-a03/l1.exe "/local_scratch/11174301/Gau-20984.inp" -scrdir="/local_scratch/11174301/"
 Entering Link 1 = /software/gaussian/g16-a03/l1.exe PID=     20985.
  
 Copyright (c) 1988,1990,1992,1993,1995,1998,2003,2009,2016,
            Gaussian, Inc.  All Rights Reserved.
  
 This is part of the Gaussian(R) 16 program.  It is based on
 the Gaussian(R) 09 system (copyright 2009, Gaussian, Inc.),
 the Gaussian(R) 03 system (copyright 2003, Gaussian, Inc.),
 the Gaussian(R) 98 system (copyright 1998, Gaussian, Inc.),
 the Gaussian(R) 94 system (copyright 1995, Gaussian, Inc.),
 the Gaussian 92(TM) system (copyright 1992, Gaussian, Inc.),
 the Gaussian 90(TM) system (copyright 1990, Gaussian, Inc.),
 the Gaussian 88(TM) system (copyright 1988, Gaussian, Inc.),
 the Gaussian 86(TM) system (copyright 1986, Carnegie Mellon
 University), and the Gaussian 82(TM) system (copyright 1983,
 Carnegie Mellon University). Gaussian is a federally registered
 trademark of Gaussian, Inc.
  
 This software contains proprietary and confidential information,
 including trade secrets, belonging to Gaussian, Inc.
  
 This software is provided under written license and may be
 used, copied, transmitted, or stored only in accord with that
 written license.
  
 The following legend is applicable only to US Government
 contracts under FAR:
  
                    RESTRICTED RIGHTS LEGEND
  
 Use, reproduction and disclosure by the US Government is
 subject to restrictions as set forth in subparagraphs (a)
 and (c) of the Commercial Computer Software - Restricted
 Rights clause in FAR 52.227-19.
  
 Gaussian, Inc.
 340 Quinnipiac St., Bldg. 40, Wallingford CT 06492
  
  
 ---------------------------------------------------------------
 Warning -- This program may not be used in any manner that
 competes with the business of Gaussian, Inc. or will provide
 assistance to any competitor of Gaussian, Inc.  The licensee
 of this program is prohibited from giving any competitor of
 Gaussian, Inc. access to this program.  By using this program,
 the user acknowledges that Gaussian, Inc. is engaged in the
 business of creating and licensing software in the field of
 computational chemistry and represents and warrants to the
 licensee that it is not a competitor of Gaussian, Inc. and that
 it will not use this program in any manner prohibited above.
 ---------------------------------------------------------------
  

 Cite this work as:
 Gaussian 16, Revision A.03,
 M. J. Frisch, G. W. Trucks, H. B. Schlegel, G. E. Scuseria, 
 M. A. Robb, J. R. Cheeseman, G. Scalmani, V. Barone, 
 G. A. Petersson, H. Nakatsuji, X. Li, M. Caricato, A. V. Marenich, 
 J. Bloino, B. G. Janesko, R. Gomperts, B. Mennucci, H. P. Hratchian, 
 J. V. Ortiz, A. F. Izmaylov, J. L. Sonnenberg, D. Williams-Young, 
 F. Ding, F. Lipparini, F. Egidi, J. Goings, B. Peng, A. Petrone, 
 T. Henderson, D. Ranasinghe, V. G. Zakrzewski, J. Gao, N. Rega, 
 G. Zheng, W. Liang, M. Hada, M. Ehara, K. Toyota, R. Fukuda, 
 J. Hasegawa, M. Ishida, T. Nakajima, Y. Honda, O. Kitao, H. Nakai, 
 T. Vreven, K. Throssell, J. A. Montgomery, Jr., J. E. Peralta, 
 F. Ogliaro, M. J. Bearpark, J. J. Heyd, E. N. Brothers, K. N. Kudin, 
 V. N. Staroverov, T. A. Keith, R. Kobayashi, J. Normand, 
 K. Raghavachari, A. P. Rendell, J. C. Burant, S. S. Iyengar, 
 J. Tomasi, M. Cossi, J. M. Millam, M. Klene, C. Adamo, R. Cammi, 
 J. W. Ochterski, R. L. Martin, K. Morokuma, O. Farkas, 
 J. B. Foresman, and D. J. Fox, Gaussian, Inc., Wallingford CT, 2016.
 
 ******************************************
 Gaussian 16:  ES64L-G16RevA.03 25-Dec-2016
                10-Jun-2022 
 ******************************************
 %nprocshared=12
 Will use up to   12 processors via shared memory.
 %chk=checkpoint.chk
 %mem=12GB
 ------------------------------------------
 # Opt B3LYP/Def2TZVP freq=noraman pop=none
 ------------------------------------------
 1/18=20,19=15,26=3,38=1/1,3;
 2/9=110,12=2,17=6,18=5,40=1/2;
 3/5=44,7=101,11=2,25=1,30=1,71=1,74=-5/1,2,3;
 4//1;
 5/5=2,38=5/2;
 7//1,2,3,16;
 1/18=20,19=15,26=3/3(2);
 2/9=110/2;
 99//99;
 2/9=110/2;
 3/5=44,7=101,11=2,25=1,30=1,71=1,74=-5/1,2,3;
 4/5=5,16=3,69=1/1;
 5/5=2,38=5/2;
 7//1,2,3,16;
 1/18=20,19=15,26=3/3(-5);
 2/9=110/2;
 99/9=1/99;
 -------------
 int_initalOpt
 -------------
 Symbolic Z-matrix:
 Charge =  0 Multiplicity = 1
 6                    -0.32957   1.39926  -0.69916 
 6                     1.11101   1.47027  -0.13976 
 6                     0.78957   0.28454   0.80573 
 6                    -0.745     0.59798   0.55434 
 6                    -1.74128  -0.50919   0.48667 
 6                    -2.45727  -0.85919  -0.57538 
 6                     1.23159  -1.08132   0.38172 
 6                     2.08994  -1.39293  -0.58203 
 1                    -1.88939  -1.05736   1.41524 
 1                    -3.17307  -1.67004  -0.5298 
 1                    -2.36068  -0.34986  -1.52657 
 1                    -0.37354   0.78862  -1.60113 
 1                    -0.85029   2.33849  -0.88524 
 1                     1.28529   2.38657   0.42516 
 1                     1.92857   1.34593  -0.84742 
 1                     1.08748   0.43103   1.84804 
 1                    -1.05804   1.29334   1.34046 
 1                     2.57403  -0.64468  -1.19696 
 1                     0.79117  -1.89401   0.9546 
 1                     2.34457  -2.42455  -0.78922 
 

 GradGradGradGradGradGradGradGradGradGradGradGradGradGradGradGradGradGrad
 Berny optimization.
 Initialization pass.
                           ----------------------------
                           !    Initial Parameters    !
                           ! (Angstroms and Degrees)  !
 --------------------------                            --------------------------
 ! Name  Definition              Value          Derivative Info.                !
 --------------------------------------------------------------------------------
 ! R1    R(1,2)                  1.547          estimate D2E/DX2                !
 ! R2    R(1,4)                  1.5446         estimate D2E/DX2                !
 ! R3    R(1,12)                 1.0901         estimate D2E/DX2                !
 ! R4    R(1,13)                 1.0899         estimate D2E/DX2                !
 ! R5    R(2,3)                  1.5502         estimate D2E/DX2                !
 ! R6    R(2,14)                 1.0905         estimate D2E/DX2                !
 ! R7    R(2,15)                 1.0884         estimate D2E/DX2                !
 ! R8    R(3,4)                  1.5863         estimate D2E/DX2                !
 ! R9    R(3,7)                  1.4969         estimate D2E/DX2                !
 ! R10   R(3,16)                 1.0939         estimate D2E/DX2                !
 ! R11   R(4,5)                  1.491          estimate D2E/DX2                !
 ! R12   R(4,17)                 1.0952         estimate D2E/DX2                !
 ! R13   R(5,6)                  1.3278         estimate D2E/DX2                !
 ! R14   R(5,9)                  1.0884         estimate D2E/DX2                !
 ! R15   R(6,10)                 1.0826         estimate D2E/DX2                !
 ! R16   R(6,11)                 1.0833         estimate D2E/DX2                !
 ! R17   R(7,8)                  1.3277         estimate D2E/DX2                !
 ! R18   R(7,19)                 1.0875         estimate D2E/DX2                !
 ! R19   R(8,18)                 1.0828         estimate D2E/DX2                !
 ! R20   R(8,20)                 1.0826         estimate D2E/DX2                !
 ! A1    A(2,1,4)               88.9009         estimate D2E/DX2                !
 ! A2    A(2,1,12)             111.2518         estimate D2E/DX2                !
 ! A3    A(2,1,13)             117.8448         estimate D2E/DX2                !
 ! A4    A(4,1,12)             111.7165         estimate D2E/DX2                !
 ! A5    A(4,1,13)             117.1991         estimate D2E/DX2                !
 ! A6    A(12,1,13)            108.7944         estimate D2E/DX2                !
 ! A7    A(1,2,3)               89.5614         estimate D2E/DX2                !
 ! A8    A(1,2,14)             112.0073         estimate D2E/DX2                !
 ! A9    A(1,2,15)             117.3307         estimate D2E/DX2                !
 ! A10   A(3,2,14)             111.0929         estimate D2E/DX2                !
 ! A11   A(3,2,15)             117.7047         estimate D2E/DX2                !
 ! A12   A(14,2,15)            108.2263         estimate D2E/DX2                !
 ! A13   A(2,3,4)               87.2949         estimate D2E/DX2                !
 ! A14   A(2,3,7)              117.6403         estimate D2E/DX2                !
 ! A15   A(2,3,16)             114.9758         estimate D2E/DX2                !
 ! A16   A(4,3,7)              114.9018         estimate D2E/DX2                !
 ! A17   A(4,3,16)             112.83           estimate D2E/DX2                !
 ! A18   A(7,3,16)             108.16           estimate D2E/DX2                !
 ! A19   A(1,4,3)               88.3337         estimate D2E/DX2                !
 ! A20   A(1,4,5)              121.8775         estimate D2E/DX2                !
 ! A21   A(1,4,17)             109.2684         estimate D2E/DX2                !
 ! A22   A(3,4,5)              120.4566         estimate D2E/DX2                !
 ! A23   A(3,4,17)             106.7508         estimate D2E/DX2                !
 ! A24   A(5,4,17)             108.2438         estimate D2E/DX2                !
 ! A25   A(4,5,6)              126.3245         estimate D2E/DX2                !
 ! A26   A(4,5,9)              115.2268         estimate D2E/DX2                !
 ! A27   A(6,5,9)              118.4403         estimate D2E/DX2                !
 ! A28   A(5,6,10)             121.3526         estimate D2E/DX2                !
 ! A29   A(5,6,11)             122.0258         estimate D2E/DX2                !
 ! A30   A(10,6,11)            116.6211         estimate D2E/DX2                !
 ! A31   A(3,7,8)              127.6394         estimate D2E/DX2                !
 ! A32   A(3,7,19)             114.3983         estimate D2E/DX2                !
 ! A33   A(8,7,19)             117.9581         estimate D2E/DX2                !
 ! A34   A(7,8,18)             122.623          estimate D2E/DX2                !
 ! A35   A(7,8,20)             120.9745         estimate D2E/DX2                !
 ! A36   A(18,8,20)            116.4021         estimate D2E/DX2                !
 ! D1    D(4,1,2,3)             18.5872         estimate D2E/DX2                !
 ! D2    D(4,1,2,14)           -94.0617         estimate D2E/DX2                !
 ! D3    D(4,1,2,15)           139.8787         estimate D2E/DX2                !
 ! D4    D(12,1,2,3)           -94.344          estimate D2E/DX2                !
 ! D5    D(12,1,2,14)          153.0072         estimate D2E/DX2                !
 ! D6    D(12,1,2,15)           26.9476         estimate D2E/DX2                !
 ! D7    D(13,1,2,3)           139.0446         estimate D2E/DX2                !
 ! D8    D(13,1,2,14)           26.3958         estimate D2E/DX2                !
 ! D9    D(13,1,2,15)          -99.6638         estimate D2E/DX2                !
 ! D10   D(2,1,4,3)            -18.1571         estimate D2E/DX2                !
 ! D11   D(2,1,4,5)           -143.5425         estimate D2E/DX2                !
 ! D12   D(2,1,4,17)            89.0167         estimate D2E/DX2                !
 ! D13   D(12,1,4,3)            94.337          estimate D2E/DX2                !
 ! D14   D(12,1,4,5)           -31.0484         estimate D2E/DX2                !
 ! D15   D(12,1,4,17)         -158.4892         estimate D2E/DX2                !
 ! D16   D(13,1,4,3)          -139.1803         estimate D2E/DX2                !
 ! D17   D(13,1,4,5)            95.4343         estimate D2E/DX2                !
 ! D18   D(13,1,4,17)          -32.0065         estimate D2E/DX2                !
 ! D19   D(1,2,3,4)            -18.0993         estimate D2E/DX2                !
 ! D20   D(1,2,3,7)             98.7146         estimate D2E/DX2                !
 ! D21   D(1,2,3,16)          -132.0842         estimate D2E/DX2                !
 ! D22   D(14,2,3,4)            95.3973         estimate D2E/DX2                !
 ! D23   D(14,2,3,7)          -147.7888         estimate D2E/DX2                !
 ! D24   D(14,2,3,16)          -18.5875         estimate D2E/DX2                !
 ! D25   D(15,2,3,4)          -139.0683         estimate D2E/DX2                !
 ! D26   D(15,2,3,7)           -22.2543         estimate D2E/DX2                !
 ! D27   D(15,2,3,16)          106.9469         estimate D2E/DX2                !
 ! D28   D(2,3,4,1)             18.1354         estimate D2E/DX2                !
 ! D29   D(2,3,4,5)            144.7046         estimate D2E/DX2                !
 ! D30   D(2,3,4,17)           -91.4984         estimate D2E/DX2                !
 ! D31   D(7,3,4,1)           -101.2123         estimate D2E/DX2                !
 ! D32   D(7,3,4,5)             25.3569         estimate D2E/DX2                !
 ! D33   D(7,3,4,17)           149.154          estimate D2E/DX2                !
 ! D34   D(16,3,4,1)           134.1593         estimate D2E/DX2                !
 ! D35   D(16,3,4,5)           -99.2715         estimate D2E/DX2                !
 ! D36   D(16,3,4,17)           24.5255         estimate D2E/DX2                !
 ! D37   D(2,3,7,8)             14.0316         estimate D2E/DX2                !
 ! D38   D(2,3,7,19)          -166.7311         estimate D2E/DX2                !
 ! D39   D(4,3,7,8)            114.656          estimate D2E/DX2                !
 ! D40   D(4,3,7,19)           -66.1067         estimate D2E/DX2                !
 ! D41   D(16,3,7,8)          -118.2976         estimate D2E/DX2                !
 ! D42   D(16,3,7,19)           60.9398         estimate D2E/DX2                !
 ! D43   D(1,4,5,6)             -6.2076         estimate D2E/DX2                !
 ! D44   D(1,4,5,9)            174.8684         estimate D2E/DX2                !
 ! D45   D(3,4,5,6)           -115.2318         estimate D2E/DX2                !
 ! D46   D(3,4,5,9)             65.8443         estimate D2E/DX2                !
 ! D47   D(17,4,5,6)           121.6839         estimate D2E/DX2                !
 ! D48   D(17,4,5,9)           -57.24           estimate D2E/DX2                !
 ! D49   D(4,5,6,10)          -178.9778         estimate D2E/DX2                !
 ! D50   D(4,5,6,11)             0.7586         estimate D2E/DX2                !
 ! D51   D(9,5,6,10)            -0.0848         estimate D2E/DX2                !
 ! D52   D(9,5,6,11)           179.6516         estimate D2E/DX2                !
 ! D53   D(3,7,8,18)            -0.6603         estimate D2E/DX2                !
 ! D54   D(3,7,8,20)           179.0916         estimate D2E/DX2                !
 ! D55   D(19,7,8,18)         -179.874          estimate D2E/DX2                !
 ! D56   D(19,7,8,20)           -0.1221         estimate D2E/DX2                !
 --------------------------------------------------------------------------------
 Trust Radius=3.00D-01 FncErr=1.00D-07 GrdErr=1.00D-06 EigMax=2.50D+02 EigMin=1.00D-04
 Number of steps in this run=    120 maximum allowed number of steps=    120.
 GradGradGradGradGradGradGradGradGradGradGradGradGradGradGradGradGradGrad

                          Input orientation:                          
 ---------------------------------------------------------------------
 Center     Atomic      Atomic             Coordinates (Angstroms)
 Number     Number       Type             X           Y           Z
 ---------------------------------------------------------------------
      1          6           0       -0.329566    1.399262   -0.699157
      2          6           0        1.111008    1.470272   -0.139762
      3          6           0        0.789566    0.284539    0.805730
      4          6           0       -0.745003    0.597976    0.554344
      5          6           0       -1.741278   -0.509189    0.486674
      6          6           0       -2.457268   -0.859191   -0.575379
      7          6           0        1.231589   -1.081316    0.381719
      8          6           0        2.089937   -1.392934   -0.582028
      9          1           0       -1.889388   -1.057363    1.415243
     10          1           0       -3.173071   -1.670036   -0.529804
     11          1           0       -2.360676   -0.349860   -1.526569
     12          1           0       -0.373544    0.788618   -1.601125
     13          1           0       -0.850293    2.338489   -0.885243
     14          1           0        1.285287    2.386569    0.425162
     15          1           0        1.928573    1.345933   -0.847424
     16          1           0        1.087482    0.431032    1.848043
     17          1           0       -1.058044    1.293342    1.340458
     18          1           0        2.574026   -0.644681   -1.196959
     19          1           0        0.791170   -1.894005    0.954597
     20          1           0        2.344573   -2.424554   -0.789224
 ---------------------------------------------------------------------
                    Distance matrix (angstroms):
                    1          2          3          4          5
     1  C    0.000000
     2  C    1.547003   0.000000
     3  C    2.181685   1.550240   0.000000
     4  C    1.544640   2.165054   1.586297   0.000000
     5  C    2.653547   3.527921   2.671511   1.490959   0.000000
     6  C    3.105326   4.283545   3.709112   2.516239   1.327818
     7  C    3.123902   2.607122   1.496907   2.599372   3.029238
     8  C    3.696495   3.058079   2.535893   3.645812   4.074474
     9  H    3.597046   4.220113   3.057614   2.188815   1.088426
    10  H    4.187456   5.326068   4.615897   3.494963   2.104952
    11  H    2.805253   4.157969   3.970656   2.799820   2.112389
    12  H    1.090122   2.191832   2.720270   2.195535   2.813166
    13  H    1.089923   2.270737   3.125258   2.261168   3.284095
    14  H    2.201504   1.090464   2.192966   2.708843   4.189188
    15  H    2.263630   1.088420   2.270862   3.110049   4.323089
    16  H    3.071437   2.243199   1.093906   2.249340   3.277076
    17  H    2.168393   2.631946   2.171930   1.095219   2.108287
    18  H    3.585576   2.780488   2.838752   3.953127   4.634094
    19  H    3.851825   3.552222   2.183625   2.954657   2.924031
    20  H    4.666980   4.136805   3.507294   4.526184   4.689426
                    6          7          8          9         10
     6  C    0.000000
     7  C    3.817465   0.000000
     8  C    4.578428   1.327658   0.000000
     9  H    2.079504   3.287741   4.465056   0.000000
    10  H    1.082553   4.536353   5.270557   2.409651   0.000000
    11  H    1.083287   4.132912   4.667774   3.062177   1.842930
    12  H    2.847689   3.163033   3.444774   3.847584   3.876862
    13  H    3.592150   4.199344   4.760295   4.231284   4.646494
    14  H    5.053984   3.468573   3.993311   4.787430   6.102865
    15  H    4.916521   2.808579   2.756423   5.047011   5.934958
    16  H    4.483626   2.111414   3.199533   3.356246   5.312340
    17  H    3.203382   3.435200   4.563093   2.494502   4.093022
    18  H    5.074081   2.117785   1.082758   5.188060   5.875847
    19  H    3.736846   1.087484   2.073423   2.845620   4.238964
    20  H    5.055073   2.100983   1.082594   4.965412   5.575033
                   11         12         13         14         15
    11  H    0.000000
    12  H    2.291372   0.000000
    13  H    3.149568   1.772534   0.000000
    14  H    4.958865   3.067736   2.506028   0.000000
    15  H    4.662039   2.485640   2.951050   1.765281   0.000000
    16  H    4.887493   3.762875   3.855414   2.426488   2.968168
    17  H    3.552014   3.062058   2.467638   2.743012   3.702631
    18  H    4.954477   3.302403   4.552190   3.671594   2.121633
    19  H    4.298221   3.883908   4.898308   4.341401   3.877907
    20  H    5.194940   4.286236   5.736111   5.073827   3.793813
                   16         17         18         19         20
    16  H    0.000000
    17  H    2.367383   0.000000
    18  H    3.555138   4.835944   0.000000
    19  H    2.508355   3.705086   3.060813   0.000000
    20  H    4.085318   5.471389   1.840338   2.394881   0.000000
 Stoichiometry    C8H12
 Framework group  C1[X(C8H12)]
 Deg. of freedom    54
 Full point group                 C1      NOp   1
 Largest Abelian subgroup         C1      NOp   1
 Largest concise Abelian subgroup C1      NOp   1
                         Standard orientation:                         
 ---------------------------------------------------------------------
 Center     Atomic      Atomic             Coordinates (Angstroms)
 Number     Number       Type             X           Y           Z
 ---------------------------------------------------------------------
      1          6           0       -0.329566    1.399262   -0.699157
      2          6           0        1.111008    1.470272   -0.139762
      3          6           0        0.789566    0.284539    0.805730
      4          6           0       -0.745003    0.597976    0.554344
      5          6           0       -1.741278   -0.509189    0.486674
      6          6           0       -2.457268   -0.859191   -0.575379
      7          6           0        1.231589   -1.081316    0.381719
      8          6           0        2.089937   -1.392934   -0.582028
      9          1           0       -1.889388   -1.057363    1.415243
     10          1           0       -3.173071   -1.670035   -0.529804
     11          1           0       -2.360676   -0.349860   -1.526569
     12          1           0       -0.373544    0.788618   -1.601125
     13          1           0       -0.850293    2.338489   -0.885243
     14          1           0        1.285287    2.386569    0.425162
     15          1           0        1.928573    1.345933   -0.847424
     16          1           0        1.087482    0.431032    1.848043
     17          1           0       -1.058044    1.293342    1.340458
     18          1           0        2.574026   -0.644681   -1.196959
     19          1           0        0.791170   -1.894005    0.954597
     20          1           0        2.344572   -2.424554   -0.789224
 ---------------------------------------------------------------------
 Rotational constants (GHZ):           2.7935539           1.6963919           1.3157300
 Standard basis: def2TZVP (5D, 7F)
 There are   360 symmetry adapted cartesian basis functions of A   symmetry.
 There are   320 symmetry adapted basis functions of A   symmetry.
   320 basis functions,   504 primitive gaussians,   360 cartesian basis functions
    30 alpha electrons       30 beta electrons
       nuclear repulsion energy       360.3732254893 Hartrees.
 NAtoms=   20 NActive=   20 NUniq=   20 SFac= 1.00D+00 NAtFMM=   60 NAOKFM=F Big=F
 Integral buffers will be    131072 words long.
 Raffenetti 2 integral format.
 Two-electron integral symmetry is turned on.
 One-electron integrals computed using PRISM.
   1 Symmetry operations used in ECPInt.
 ECPInt:  NShTT=    9316 NPrTT=   27240 LenC2=    9174 LenP2D=   21654.
 LDataN:  DoStor=T MaxTD1= 6 Len=  172
 NBasis=   320 RedAO= T EigKep=  3.42D-05  NBF=   320
 NBsUse=   320 1.00D-06 EigRej= -1.00D+00 NBFU=   320
 ExpMin= 9.52D-02 ExpMax= 1.36D+04 ExpMxC= 4.63D+02 IAcc=3 IRadAn=         5 AccDes= 0.00D+00
 Harris functional with IExCor=  402 and IRadAn=       5 diagonalized for initial guess.
 HarFok:  IExCor=  402 AccDes= 0.00D+00 IRadAn=         5 IDoV= 1 UseB2=F ITyADJ=14
 ICtDFT=  3500011 ScaDFX=  1.000000  1.000000  1.000000  1.000000
 FoFCou: FMM=F IPFlag=           0 FMFlag=      100000 FMFlg1=           0
         NFxFlg=           0 DoJE=T BraDBF=F KetDBF=T FulRan=T
         wScrn=  0.000000 ICntrl=       500 IOpCl=  0 I1Cent=   200000004 NGrid=           0
         NMat0=    1 NMatS0=      1 NMatT0=    0 NMatD0=    1 NMtDS0=    0 NMtDT0=    0
 Petite list used in FoFCou.
 Requested convergence on RMS density matrix=1.00D-08 within 128 cycles.
 Requested convergence on MAX density matrix=1.00D-06.
 Requested convergence on             energy=1.00D-06.
 No special actions if energy rises.
 Integral accuracy reduced to 1.0D-05 until final iterations.
 Initial convergence to 1.0D-05 achieved.  Increase integral accuracy.
 SCF Done:  E(RB3LYP) =  -312.116805231     A.U. after   13 cycles
            NFock= 13  Conv=0.70D-08     -V/T= 2.0056
   1 Symmetry operations used in ECPInt.
 ECPInt:  NShTT=    9316 NPrTT=   27240 LenC2=    9174 LenP2D=   21654.
 LDataN:  DoStor=T MaxTD1= 7 Len=  274
 Calling FoFJK, ICntrl=      2127 FMM=F ISym2X=0 I1Cent= 0 IOpClX= 0 NMat=1 NMatS=1 NMatT=0.
 ***** Axes restored to original set *****
 -------------------------------------------------------------------
 Center     Atomic                   Forces (Hartrees/Bohr)
 Number     Number              X              Y              Z
 -------------------------------------------------------------------
      1        6          -0.000000532    0.000002292   -0.000007283
      2        6          -0.000001592   -0.000011277   -0.000009145
      3        6          -0.000007322    0.000010566    0.000021935
      4        6           0.000010205    0.000027534    0.000006001
      5        6          -0.000011440   -0.000021535    0.000000762
      6        6           0.000002215    0.000009232    0.000002958
      7        6           0.000007403   -0.000004592   -0.000003265
      8        6          -0.000006881    0.000003875    0.000006846
      9        1           0.000004584    0.000003202   -0.000004626
     10        1          -0.000000432    0.000000471   -0.000005784
     11        1          -0.000000788   -0.000004900   -0.000001591
     12        1           0.000000428   -0.000004433    0.000003661
     13        1           0.000004916   -0.000006222   -0.000001306
     14        1           0.000001656   -0.000002716    0.000004114
     15        1           0.000002243    0.000003665    0.000003508
     16        1          -0.000002703   -0.000002517   -0.000010246
     17        1          -0.000008139   -0.000004791   -0.000007526
     18        1           0.000004098   -0.000003065   -0.000000847
     19        1           0.000002261    0.000003839    0.000003445
     20        1          -0.000000178    0.000001372   -0.000001613
 -------------------------------------------------------------------
 Cartesian Forces:  Max     0.000027534 RMS     0.000007420

 GradGradGradGradGradGradGradGradGradGradGradGradGradGradGradGradGradGrad
 Berny optimization.
 FormGI is forming the generalized inverse of G from B-inverse, IUseBI=4.
 Internal  Forces:  Max     0.000013847 RMS     0.000003240
 Search for a local minimum.
 Step number   1 out of a maximum of  120
 All quantities printed in internal units (Hartrees-Bohrs-Radians)
 Mixed Optimization -- En-DIIS/RFO-DIIS
 Second derivative matrix not updated -- first step.
 ITU=  0
     Eigenvalues ---    0.00312   0.00807   0.00886   0.01736   0.01779
     Eigenvalues ---    0.02286   0.02410   0.03044   0.03044   0.03046
     Eigenvalues ---    0.03046   0.03059   0.03798   0.04473   0.04582
     Eigenvalues ---    0.04798   0.04917   0.05672   0.06157   0.06273
     Eigenvalues ---    0.06668   0.07516   0.08287   0.09134   0.11469
     Eigenvalues ---    0.15998   0.15999   0.16000   0.16000   0.16000
     Eigenvalues ---    0.16000   0.19843   0.22000   0.22000   0.23365
     Eigenvalues ---    0.25265   0.26551   0.27596   0.32704   0.33345
     Eigenvalues ---    0.34216   0.34365   0.34759   0.34799   0.34822
     Eigenvalues ---    0.34995   0.34996   0.35105   0.35600   0.35663
     Eigenvalues ---    0.35683   0.35688   0.60024   0.60062
 RFO step:  Lambda=-2.33946729D-08 EMin= 3.12064468D-03
 Linear search not attempted -- first point.
 Iteration  1 RMS(Cart)=  0.00024112 RMS(Int)=  0.00000002
 Iteration  2 RMS(Cart)=  0.00000003 RMS(Int)=  0.00000000
 Variable       Old X    -DE/DX   Delta X   Delta X   Delta X     New X
                                 (Linear)    (Quad)   (Total)
    R1        2.92341  -0.00000   0.00000  -0.00001  -0.00001   2.92341
    R2        2.91895  -0.00000   0.00000  -0.00000  -0.00000   2.91894
    R3        2.06003  -0.00000   0.00000  -0.00000  -0.00000   2.06003
    R4        2.05966  -0.00001   0.00000  -0.00002  -0.00002   2.05964
    R5        2.92953  -0.00001   0.00000  -0.00003  -0.00003   2.92950
    R6        2.06068   0.00000   0.00000   0.00000   0.00000   2.06068
    R7        2.05682  -0.00000   0.00000  -0.00000  -0.00000   2.05681
    R8        2.99767   0.00000   0.00000   0.00001   0.00001   2.99768
    R9        2.82874   0.00000   0.00000   0.00001   0.00001   2.82875
   R10        2.06718  -0.00001   0.00000  -0.00003  -0.00003   2.06715
   R11        2.81750   0.00001   0.00000   0.00004   0.00004   2.81754
   R12        2.06966  -0.00001   0.00000  -0.00002  -0.00002   2.06965
   R13        2.50921  -0.00000   0.00000  -0.00000  -0.00000   2.50921
   R14        2.05683  -0.00001   0.00000  -0.00001  -0.00001   2.05681
   R15        2.04573  -0.00000   0.00000  -0.00000  -0.00000   2.04573
   R16        2.04712  -0.00000   0.00000  -0.00001  -0.00001   2.04711
   R17        2.50891  -0.00000   0.00000  -0.00000  -0.00000   2.50891
   R18        2.05505  -0.00000   0.00000  -0.00001  -0.00001   2.05504
   R19        2.04612   0.00000   0.00000   0.00000   0.00000   2.04612
   R20        2.04581  -0.00000   0.00000  -0.00000  -0.00000   2.04580
    A1        1.55161   0.00000   0.00000  -0.00002  -0.00002   1.55159
    A2        1.94171  -0.00000   0.00000   0.00001   0.00001   1.94172
    A3        2.05678   0.00000   0.00000   0.00000   0.00000   2.05678
    A4        1.94982  -0.00000   0.00000  -0.00004  -0.00004   1.94978
    A5        2.04551  -0.00000   0.00000   0.00002   0.00002   2.04553
    A6        1.89882   0.00000   0.00000   0.00002   0.00002   1.89884
    A7        1.56314  -0.00000   0.00000  -0.00002  -0.00002   1.56312
    A8        1.95490   0.00000   0.00000   0.00004   0.00004   1.95493
    A9        2.04781   0.00000   0.00000   0.00003   0.00003   2.04784
   A10        1.93894  -0.00000   0.00000  -0.00006  -0.00006   1.93888
   A11        2.05433   0.00000   0.00000   0.00002   0.00002   2.05436
   A12        1.88890  -0.00000   0.00000  -0.00001  -0.00001   1.88889
   A13        1.52358   0.00000   0.00000  -0.00002  -0.00002   1.52356
   A14        2.05321  -0.00001   0.00000  -0.00008  -0.00008   2.05313
   A15        2.00671   0.00000   0.00000   0.00001   0.00001   2.00672
   A16        2.00541  -0.00000   0.00000  -0.00001  -0.00001   2.00540
   A17        1.96926   0.00000   0.00000   0.00007   0.00007   1.96932
   A18        1.88775   0.00000   0.00000   0.00003   0.00003   1.88778
   A19        1.54171  -0.00000   0.00000  -0.00004  -0.00004   1.54168
   A20        2.12716  -0.00000   0.00000  -0.00004  -0.00004   2.12713
   A21        1.90709   0.00000   0.00000   0.00005   0.00005   1.90714
   A22        2.10236   0.00000   0.00000  -0.00003  -0.00003   2.10234
   A23        1.86315   0.00000   0.00000   0.00008   0.00008   1.86324
   A24        1.88921  -0.00000   0.00000  -0.00002  -0.00002   1.88920
   A25        2.20478  -0.00001   0.00000  -0.00002  -0.00002   2.20475
   A26        2.01109  -0.00000   0.00000  -0.00001  -0.00001   2.01108
   A27        2.06717   0.00001   0.00000   0.00003   0.00003   2.06721
   A28        2.11800   0.00000   0.00000   0.00002   0.00002   2.11802
   A29        2.12975   0.00000   0.00000   0.00001   0.00001   2.12977
   A30        2.03542  -0.00001   0.00000  -0.00003  -0.00003   2.03539
   A31        2.22773  -0.00000   0.00000  -0.00001  -0.00001   2.22772
   A32        1.99663  -0.00000   0.00000  -0.00001  -0.00001   1.99662
   A33        2.05876   0.00000   0.00000   0.00002   0.00002   2.05877
   A34        2.14017   0.00000   0.00000   0.00003   0.00003   2.14020
   A35        2.11140   0.00000   0.00000   0.00001   0.00001   2.11141
   A36        2.03160  -0.00001   0.00000  -0.00004  -0.00004   2.03157
    D1        0.32441  -0.00000   0.00000   0.00016   0.00016   0.32456
    D2       -1.64169   0.00000   0.00000   0.00022   0.00022  -1.64147
    D3        2.44134   0.00000   0.00000   0.00018   0.00018   2.44152
    D4       -1.64661   0.00000   0.00000   0.00021   0.00021  -1.64640
    D5        2.67048   0.00000   0.00000   0.00027   0.00027   2.67075
    D6        0.47032   0.00000   0.00000   0.00023   0.00023   0.47056
    D7        2.42679   0.00000   0.00000   0.00017   0.00017   2.42695
    D8        0.46069   0.00000   0.00000   0.00023   0.00023   0.46092
    D9       -1.73946   0.00000   0.00000   0.00019   0.00019  -1.73927
   D10       -0.31690   0.00000   0.00000  -0.00015  -0.00015  -0.31705
   D11       -2.50529   0.00000   0.00000  -0.00007  -0.00007  -2.50536
   D12        1.55363   0.00000   0.00000  -0.00007  -0.00007   1.55357
   D13        1.64649  -0.00000   0.00000  -0.00015  -0.00015   1.64634
   D14       -0.54190   0.00000   0.00000  -0.00008  -0.00008  -0.54197
   D15       -2.76616   0.00000   0.00000  -0.00007  -0.00007  -2.76623
   D16       -2.42915  -0.00000   0.00000  -0.00014  -0.00014  -2.42930
   D17        1.66564   0.00000   0.00000  -0.00007  -0.00007   1.66557
   D18       -0.55862   0.00000   0.00000  -0.00006  -0.00006  -0.55868
   D19       -0.31589   0.00000   0.00000  -0.00015  -0.00015  -0.31604
   D20        1.72289  -0.00000   0.00000  -0.00019  -0.00019   1.72271
   D21       -2.30530  -0.00000   0.00000  -0.00022  -0.00022  -2.30552
   D22        1.66500   0.00000   0.00000  -0.00013  -0.00013   1.66487
   D23       -2.57940   0.00000   0.00000  -0.00017  -0.00017  -2.57957
   D24       -0.32441  -0.00000   0.00000  -0.00019  -0.00019  -0.32461
   D25       -2.42720  -0.00000   0.00000  -0.00018  -0.00018  -2.42738
   D26       -0.38841  -0.00000   0.00000  -0.00022  -0.00022  -0.38863
   D27        1.86658  -0.00000   0.00000  -0.00025  -0.00025   1.86633
   D28        0.31652  -0.00000   0.00000   0.00015   0.00015   0.31667
   D29        2.52557  -0.00000   0.00000   0.00007   0.00007   2.52564
   D30       -1.59695  -0.00000   0.00000   0.00010   0.00010  -1.59684
   D31       -1.76649   0.00001   0.00000   0.00026   0.00026  -1.76623
   D32        0.44256   0.00000   0.00000   0.00017   0.00017   0.44274
   D33        2.60323   0.00000   0.00000   0.00021   0.00021   2.60344
   D34        2.34152   0.00000   0.00000   0.00017   0.00017   2.34169
   D35       -1.73262  -0.00000   0.00000   0.00009   0.00009  -1.73253
   D36        0.42805  -0.00000   0.00000   0.00012   0.00012   0.42817
   D37        0.24490  -0.00000   0.00000  -0.00040  -0.00040   0.24450
   D38       -2.91001  -0.00000   0.00000  -0.00028  -0.00028  -2.91029
   D39        2.00112  -0.00001   0.00000  -0.00048  -0.00048   2.00065
   D40       -1.15378  -0.00000   0.00000  -0.00036  -0.00036  -1.15414
   D41       -2.06468  -0.00000   0.00000  -0.00037  -0.00037  -2.06505
   D42        1.06360  -0.00000   0.00000  -0.00025  -0.00025   1.06335
   D43       -0.10834  -0.00000   0.00000  -0.00033  -0.00033  -0.10867
   D44        3.05203  -0.00000   0.00000  -0.00029  -0.00029   3.05174
   D45       -2.01117  -0.00000   0.00000  -0.00022  -0.00022  -2.01140
   D46        1.14920   0.00000   0.00000  -0.00018  -0.00018   1.14902
   D47        2.12379  -0.00000   0.00000  -0.00030  -0.00030   2.12348
   D48       -0.99903  -0.00000   0.00000  -0.00027  -0.00027  -0.99929
   D49       -3.12375   0.00000   0.00000   0.00002   0.00002  -3.12373
   D50        0.01324   0.00000   0.00000   0.00005   0.00005   0.01329
   D51       -0.00148  -0.00000   0.00000  -0.00002  -0.00002  -0.00150
   D52        3.13551   0.00000   0.00000   0.00001   0.00001   3.13553
   D53       -0.01152   0.00000   0.00000   0.00007   0.00007  -0.01146
   D54        3.12574   0.00000   0.00000   0.00017   0.00017   3.12590
   D55       -3.13939  -0.00000   0.00000  -0.00006  -0.00006  -3.13945
   D56       -0.00213   0.00000   0.00000   0.00004   0.00004  -0.00209
         Item               Value     Threshold  Converged?
 Maximum Force            0.000014     0.000450     YES
 RMS     Force            0.000003     0.000300     YES
 Maximum Displacement     0.000857     0.001800     YES
 RMS     Displacement     0.000241     0.001200     YES
 Predicted change in Energy=-1.169719D-08
 Optimization completed.
    -- Stationary point found.
                           ----------------------------
                           !   Optimized Parameters   !
                           ! (Angstroms and Degrees)  !
 --------------------------                            --------------------------
 ! Name  Definition              Value          Derivative Info.                !
 --------------------------------------------------------------------------------
 ! R1    R(1,2)                  1.547          -DE/DX =    0.0                 !
 ! R2    R(1,4)                  1.5446         -DE/DX =    0.0                 !
 ! R3    R(1,12)                 1.0901         -DE/DX =    0.0                 !
 ! R4    R(1,13)                 1.0899         -DE/DX =    0.0                 !
 ! R5    R(2,3)                  1.5502         -DE/DX =    0.0                 !
 ! R6    R(2,14)                 1.0905         -DE/DX =    0.0                 !
 ! R7    R(2,15)                 1.0884         -DE/DX =    0.0                 !
 ! R8    R(3,4)                  1.5863         -DE/DX =    0.0                 !
 ! R9    R(3,7)                  1.4969         -DE/DX =    0.0                 !
 ! R10   R(3,16)                 1.0939         -DE/DX =    0.0                 !
 ! R11   R(4,5)                  1.491          -DE/DX =    0.0                 !
 ! R12   R(4,17)                 1.0952         -DE/DX =    0.0                 !
 ! R13   R(5,6)                  1.3278         -DE/DX =    0.0                 !
 ! R14   R(5,9)                  1.0884         -DE/DX =    0.0                 !
 ! R15   R(6,10)                 1.0826         -DE/DX =    0.0                 !
 ! R16   R(6,11)                 1.0833         -DE/DX =    0.0                 !
 ! R17   R(7,8)                  1.3277         -DE/DX =    0.0                 !
 ! R18   R(7,19)                 1.0875         -DE/DX =    0.0                 !
 ! R19   R(8,18)                 1.0828         -DE/DX =    0.0                 !
 ! R20   R(8,20)                 1.0826         -DE/DX =    0.0                 !
 ! A1    A(2,1,4)               88.9009         -DE/DX =    0.0                 !
 ! A2    A(2,1,12)             111.2518         -DE/DX =    0.0                 !
 ! A3    A(2,1,13)             117.8448         -DE/DX =    0.0                 !
 ! A4    A(4,1,12)             111.7165         -DE/DX =    0.0                 !
 ! A5    A(4,1,13)             117.1991         -DE/DX =    0.0                 !
 ! A6    A(12,1,13)            108.7944         -DE/DX =    0.0                 !
 ! A7    A(1,2,3)               89.5614         -DE/DX =    0.0                 !
 ! A8    A(1,2,14)             112.0073         -DE/DX =    0.0                 !
 ! A9    A(1,2,15)             117.3307         -DE/DX =    0.0                 !
 ! A10   A(3,2,14)             111.0929         -DE/DX =    0.0                 !
 ! A11   A(3,2,15)             117.7047         -DE/DX =    0.0                 !
 ! A12   A(14,2,15)            108.2263         -DE/DX =    0.0                 !
 ! A13   A(2,3,4)               87.2949         -DE/DX =    0.0                 !
 ! A14   A(2,3,7)              117.6403         -DE/DX =    0.0                 !
 ! A15   A(2,3,16)             114.9758         -DE/DX =    0.0                 !
 ! A16   A(4,3,7)              114.9018         -DE/DX =    0.0                 !
 ! A17   A(4,3,16)             112.83           -DE/DX =    0.0                 !
 ! A18   A(7,3,16)             108.16           -DE/DX =    0.0                 !
 ! A19   A(1,4,3)               88.3337         -DE/DX =    0.0                 !
 ! A20   A(1,4,5)              121.8775         -DE/DX =    0.0                 !
 ! A21   A(1,4,17)             109.2684         -DE/DX =    0.0                 !
 ! A22   A(3,4,5)              120.4566         -DE/DX =    0.0                 !
 ! A23   A(3,4,17)             106.7508         -DE/DX =    0.0                 !
 ! A24   A(5,4,17)             108.2438         -DE/DX =    0.0                 !
 ! A25   A(4,5,6)              126.3245         -DE/DX =    0.0                 !
 ! A26   A(4,5,9)              115.2268         -DE/DX =    0.0                 !
 ! A27   A(6,5,9)              118.4403         -DE/DX =    0.0                 !
 ! A28   A(5,6,10)             121.3526         -DE/DX =    0.0                 !
 ! A29   A(5,6,11)             122.0258         -DE/DX =    0.0                 !
 ! A30   A(10,6,11)            116.6211         -DE/DX =    0.0                 !
 ! A31   A(3,7,8)              127.6394         -DE/DX =    0.0                 !
 ! A32   A(3,7,19)             114.3983         -DE/DX =    0.0                 !
 ! A33   A(8,7,19)             117.9581         -DE/DX =    0.0                 !
 ! A34   A(7,8,18)             122.623          -DE/DX =    0.0                 !
 ! A35   A(7,8,20)             120.9745         -DE/DX =    0.0                 !
 ! A36   A(18,8,20)            116.4021         -DE/DX =    0.0                 !
 ! D1    D(4,1,2,3)             18.5872         -DE/DX =    0.0                 !
 ! D2    D(4,1,2,14)           -94.0617         -DE/DX =    0.0                 !
 ! D3    D(4,1,2,15)           139.8787         -DE/DX =    0.0                 !
 ! D4    D(12,1,2,3)           -94.344          -DE/DX =    0.0                 !
 ! D5    D(12,1,2,14)          153.0072         -DE/DX =    0.0                 !
 ! D6    D(12,1,2,15)           26.9476         -DE/DX =    0.0                 !
 ! D7    D(13,1,2,3)           139.0446         -DE/DX =    0.0                 !
 ! D8    D(13,1,2,14)           26.3958         -DE/DX =    0.0                 !
 ! D9    D(13,1,2,15)          -99.6638         -DE/DX =    0.0                 !
 ! D10   D(2,1,4,3)            -18.1571         -DE/DX =    0.0                 !
 ! D11   D(2,1,4,5)           -143.5425         -DE/DX =    0.0                 !
 ! D12   D(2,1,4,17)            89.0167         -DE/DX =    0.0                 !
 ! D13   D(12,1,4,3)            94.337          -DE/DX =    0.0                 !
 ! D14   D(12,1,4,5)           -31.0484         -DE/DX =    0.0                 !
 ! D15   D(12,1,4,17)         -158.4892         -DE/DX =    0.0                 !
 ! D16   D(13,1,4,3)          -139.1803         -DE/DX =    0.0                 !
 ! D17   D(13,1,4,5)            95.4343         -DE/DX =    0.0                 !
 ! D18   D(13,1,4,17)          -32.0065         -DE/DX =    0.0                 !
 ! D19   D(1,2,3,4)            -18.0993         -DE/DX =    0.0                 !
 ! D20   D(1,2,3,7)             98.7146         -DE/DX =    0.0                 !
 ! D21   D(1,2,3,16)          -132.0842         -DE/DX =    0.0                 !
 ! D22   D(14,2,3,4)            95.3973         -DE/DX =    0.0                 !
 ! D23   D(14,2,3,7)          -147.7888         -DE/DX =    0.0                 !
 ! D24   D(14,2,3,16)          -18.5875         -DE/DX =    0.0                 !
 ! D25   D(15,2,3,4)          -139.0683         -DE/DX =    0.0                 !
 ! D26   D(15,2,3,7)           -22.2543         -DE/DX =    0.0                 !
 ! D27   D(15,2,3,16)          106.9469         -DE/DX =    0.0                 !
 ! D28   D(2,3,4,1)             18.1354         -DE/DX =    0.0                 !
 ! D29   D(2,3,4,5)            144.7046         -DE/DX =    0.0                 !
 ! D30   D(2,3,4,17)           -91.4984         -DE/DX =    0.0                 !
 ! D31   D(7,3,4,1)           -101.2123         -DE/DX =    0.0                 !
 ! D32   D(7,3,4,5)             25.3569         -DE/DX =    0.0                 !
 ! D33   D(7,3,4,17)           149.154          -DE/DX =    0.0                 !
 ! D34   D(16,3,4,1)           134.1593         -DE/DX =    0.0                 !
 ! D35   D(16,3,4,5)           -99.2715         -DE/DX =    0.0                 !
 ! D36   D(16,3,4,17)           24.5255         -DE/DX =    0.0                 !
 ! D37   D(2,3,7,8)             14.0316         -DE/DX =    0.0                 !
 ! D38   D(2,3,7,19)          -166.7311         -DE/DX =    0.0                 !
 ! D39   D(4,3,7,8)            114.656          -DE/DX =    0.0                 !
 ! D40   D(4,3,7,19)           -66.1067         -DE/DX =    0.0                 !
 ! D41   D(16,3,7,8)          -118.2976         -DE/DX =    0.0                 !
 ! D42   D(16,3,7,19)           60.9398         -DE/DX =    0.0                 !
 ! D43   D(1,4,5,6)             -6.2076         -DE/DX =    0.0                 !
 ! D44   D(1,4,5,9)            174.8684         -DE/DX =    0.0                 !
 ! D45   D(3,4,5,6)           -115.2318         -DE/DX =    0.0                 !
 ! D46   D(3,4,5,9)             65.8443         -DE/DX =    0.0                 !
 ! D47   D(17,4,5,6)           121.6839         -DE/DX =    0.0                 !
 ! D48   D(17,4,5,9)           -57.24           -DE/DX =    0.0                 !
 ! D49   D(4,5,6,10)          -178.9778         -DE/DX =    0.0                 !
 ! D50   D(4,5,6,11)             0.7586         -DE/DX =    0.0                 !
 ! D51   D(9,5,6,10)            -0.0848         -DE/DX =    0.0                 !
 ! D52   D(9,5,6,11)           179.6516         -DE/DX =    0.0                 !
 ! D53   D(3,7,8,18)            -0.6603         -DE/DX =    0.0                 !
 ! D54   D(3,7,8,20)           179.0916         -DE/DX =    0.0                 !
 ! D55   D(19,7,8,18)         -179.874          -DE/DX =    0.0                 !
 ! D56   D(19,7,8,20)           -0.1221         -DE/DX =    0.0                 !
 --------------------------------------------------------------------------------
 GradGradGradGradGradGradGradGradGradGradGradGradGradGradGradGradGradGrad

                          Input orientation:                          
 ---------------------------------------------------------------------
 Center     Atomic      Atomic             Coordinates (Angstroms)
 Number     Number       Type             X           Y           Z
 ---------------------------------------------------------------------
      1          6           0       -0.329566    1.399262   -0.699157
      2          6           0        1.111008    1.470272   -0.139762
      3          6           0        0.789566    0.284539    0.805730
      4          6           0       -0.745003    0.597976    0.554344
      5          6           0       -1.741278   -0.509189    0.486674
      6          6           0       -2.457268   -0.859191   -0.575379
      7          6           0        1.231589   -1.081316    0.381719
      8          6           0        2.089937   -1.392934   -0.582028
      9          1           0       -1.889388   -1.057363    1.415243
     10          1           0       -3.173071   -1.670036   -0.529804
     11          1           0       -2.360676   -0.349860   -1.526569
     12          1           0       -0.373544    0.788618   -1.601125
     13          1           0       -0.850293    2.338489   -0.885243
     14          1           0        1.285287    2.386569    0.425162
     15          1           0        1.928573    1.345933   -0.847424
     16          1           0        1.087482    0.431032    1.848043
     17          1           0       -1.058044    1.293342    1.340458
     18          1           0        2.574026   -0.644681   -1.196959
     19          1           0        0.791170   -1.894005    0.954597
     20          1           0        2.344573   -2.424554   -0.789224
 ---------------------------------------------------------------------
                    Distance matrix (angstroms):
                    1          2          3          4          5
     1  C    0.000000
     2  C    1.547003   0.000000
     3  C    2.181685   1.550240   0.000000
     4  C    1.544640   2.165054   1.586297   0.000000
     5  C    2.653547   3.527921   2.671511   1.490959   0.000000
     6  C    3.105326   4.283545   3.709112   2.516239   1.327818
     7  C    3.123902   2.607122   1.496907   2.599372   3.029238
     8  C    3.696495   3.058079   2.535893   3.645812   4.074474
     9  H    3.597046   4.220113   3.057614   2.188815   1.088426
    10  H    4.187456   5.326068   4.615897   3.494963   2.104952
    11  H    2.805253   4.157969   3.970656   2.799820   2.112389
    12  H    1.090122   2.191832   2.720270   2.195535   2.813166
    13  H    1.089923   2.270737   3.125258   2.261168   3.284095
    14  H    2.201504   1.090464   2.192966   2.708843   4.189188
    15  H    2.263630   1.088420   2.270862   3.110049   4.323089
    16  H    3.071437   2.243199   1.093906   2.249340   3.277076
    17  H    2.168393   2.631946   2.171930   1.095219   2.108287
    18  H    3.585576   2.780488   2.838752   3.953127   4.634094
    19  H    3.851825   3.552222   2.183625   2.954657   2.924031
    20  H    4.666980   4.136805   3.507294   4.526184   4.689426
                    6          7          8          9         10
     6  C    0.000000
     7  C    3.817465   0.000000
     8  C    4.578428   1.327658   0.000000
     9  H    2.079504   3.287741   4.465056   0.000000
    10  H    1.082553   4.536353   5.270557   2.409651   0.000000
    11  H    1.083287   4.132912   4.667774   3.062177   1.842930
    12  H    2.847689   3.163033   3.444774   3.847584   3.876862
    13  H    3.592150   4.199344   4.760295   4.231284   4.646494
    14  H    5.053984   3.468573   3.993311   4.787430   6.102865
    15  H    4.916521   2.808579   2.756423   5.047011   5.934958
    16  H    4.483626   2.111414   3.199533   3.356246   5.312340
    17  H    3.203382   3.435200   4.563093   2.494502   4.093022
    18  H    5.074081   2.117785   1.082758   5.188060   5.875847
    19  H    3.736846   1.087484   2.073423   2.845620   4.238964
    20  H    5.055073   2.100983   1.082594   4.965412   5.575033
                   11         12         13         14         15
    11  H    0.000000
    12  H    2.291372   0.000000
    13  H    3.149568   1.772534   0.000000
    14  H    4.958865   3.067736   2.506028   0.000000
    15  H    4.662039   2.485640   2.951050   1.765281   0.000000
    16  H    4.887493   3.762875   3.855414   2.426488   2.968168
    17  H    3.552014   3.062058   2.467638   2.743012   3.702631
    18  H    4.954477   3.302403   4.552190   3.671594   2.121633
    19  H    4.298221   3.883908   4.898308   4.341401   3.877907
    20  H    5.194940   4.286236   5.736111   5.073827   3.793813
                   16         17         18         19         20
    16  H    0.000000
    17  H    2.367383   0.000000
    18  H    3.555138   4.835944   0.000000
    19  H    2.508355   3.705086   3.060813   0.000000
    20  H    4.085318   5.471389   1.840338   2.394881   0.000000
 Stoichiometry    C8H12
 Framework group  C1[X(C8H12)]
 Deg. of freedom    54
 Full point group                 C1      NOp   1
 Largest Abelian subgroup         C1      NOp   1
 Largest concise Abelian subgroup C1      NOp   1
                         Standard orientation:                         
 ---------------------------------------------------------------------
 Center     Atomic      Atomic             Coordinates (Angstroms)
 Number     Number       Type             X           Y           Z
 ---------------------------------------------------------------------
      1          6           0       -0.329566    1.399262   -0.699157
      2          6           0        1.111008    1.470272   -0.139762
      3          6           0        0.789566    0.284539    0.805730
      4          6           0       -0.745003    0.597976    0.554344
      5          6           0       -1.741278   -0.509189    0.486674
      6          6           0       -2.457268   -0.859191   -0.575379
      7          6           0        1.231589   -1.081316    0.381719
      8          6           0        2.089937   -1.392934   -0.582028
      9          1           0       -1.889388   -1.057363    1.415243
     10          1           0       -3.173071   -1.670035   -0.529804
     11          1           0       -2.360676   -0.349860   -1.526569
     12          1           0       -0.373544    0.788618   -1.601125
     13          1           0       -0.850293    2.338489   -0.885243
     14          1           0        1.285287    2.386569    0.425162
     15          1           0        1.928573    1.345933   -0.847424
     16          1           0        1.087482    0.431032    1.848043
     17          1           0       -1.058044    1.293342    1.340458
     18          1           0        2.574026   -0.644681   -1.196959
     19          1           0        0.791170   -1.894005    0.954597
     20          1           0        2.344572   -2.424554   -0.789224
 ---------------------------------------------------------------------
 Rotational constants (GHZ):           2.7935539           1.6963919           1.3157300
 1\1\GINC-BHC0005\FOpt\RB3LYP\def2TZVP\C8H12\DHANAWAY\10-Jun-2022\0\\# 
 Opt B3LYP/Def2TZVP freq=noraman pop=none\\int_initalOpt\\0,1\C,-0.3295
 66,1.399262,-0.699157\C,1.111008,1.470272,-0.139762\C,0.789566,0.28453
 9,0.80573\C,-0.745003,0.597976,0.554344\C,-1.741278,-0.509189,0.486674
 \C,-2.457268,-0.859191,-0.575379\C,1.231589,-1.081316,0.381719\C,2.089
 937,-1.392934,-0.582028\H,-1.889388,-1.057363,1.415243\H,-3.173071,-1.
 670036,-0.529804\H,-2.360676,-0.34986,-1.526569\H,-0.373544,0.788618,-
 1.601125\H,-0.850293,2.338489,-0.885243\H,1.285287,2.386569,0.425162\H
 ,1.928573,1.345933,-0.847424\H,1.087482,0.431032,1.848043\H,-1.058044,
 1.293342,1.340458\H,2.574026,-0.644681,-1.196959\H,0.79117,-1.894005,0
 .954597\H,2.344573,-2.424554,-0.789224\\Version=ES64L-G16RevA.03\HF=-3
 12.1168052\RMSD=7.047e-09\RMSF=7.420e-06\Dipole=-0.0005058,0.1540239,0
 .1497005\PG=C01 [X(C8H12)]\\@


 If your ship doesn't come in, swim out to it!
                          -- Jonathan Winters
 Job cpu time:       0 days  0 hours 18 minutes 21.0 seconds.
 Elapsed time:       0 days  0 hours  1 minutes 34.9 seconds.
 File lengths (MBytes):  RWF=     60 Int=      0 D2E=      0 Chk=     32 Scr=      1
 Normal termination of Gaussian 16 at Fri Jun 10 21:40:40 2022.
 Link1:  Proceeding to internal job step number  2.
 --------------------------------------------------------------------
 #N Geom=AllCheck Guess=TCheck SCRF=Check GenChk RB3LYP/def2TZVP Freq
 --------------------------------------------------------------------
 1/10=4,29=7,30=1,38=1,40=1/1,3;
 2/12=2,40=1/2;
 3/5=44,7=101,11=2,14=-4,25=1,30=1,70=2,71=2,74=-5,116=1,140=1/1,2,3;
 4/5=101/1;
 5/5=2,38=6,98=1/2;
 8/6=4,10=90,11=11/1;
 11/6=1,8=1,9=11,15=111,16=1/1,2,10;
 10/6=1/2;
 7/8=1,10=1,25=1/1,2,3,16;
 1/10=4,30=1/3;
 99//99;
 Structure from the checkpoint file:  "checkpoint.chk"
 -------------
 int_initalOpt
 -------------
 Charge =  0 Multiplicity = 1
 Redundant internal coordinates found in file.  (old form).
 C,0,-0.329566,1.399262,-0.699157
 C,0,1.111008,1.470272,-0.139762
 C,0,0.789566,0.284539,0.80573
 C,0,-0.745003,0.597976,0.554344
 C,0,-1.741278,-0.509189,0.486674
 C,0,-2.457268,-0.859191,-0.575379
 C,0,1.231589,-1.081316,0.381719
 C,0,2.089937,-1.392934,-0.582028
 H,0,-1.889388,-1.057363,1.415243
 H,0,-3.173071,-1.670036,-0.529804
 H,0,-2.360676,-0.34986,-1.526569
 H,0,-0.373544,0.788618,-1.601125
 H,0,-0.850293,2.338489,-0.885243
 H,0,1.285287,2.386569,0.425162
 H,0,1.928573,1.345933,-0.847424
 H,0,1.087482,0.431032,1.848043
 H,0,-1.058044,1.293342,1.340458
 H,0,2.574026,-0.644681,-1.196959
 H,0,0.79117,-1.894005,0.954597
 H,0,2.344573,-2.424554,-0.789224
 Recover connectivity data from disk.

 GradGradGradGradGradGradGradGradGradGradGradGradGradGradGradGradGradGrad
 Berny optimization.
 Initialization pass.
                           ----------------------------
                           !    Initial Parameters    !
                           ! (Angstroms and Degrees)  !
 --------------------------                            --------------------------
 ! Name  Definition              Value          Derivative Info.                !
 --------------------------------------------------------------------------------
 ! R1    R(1,2)                  1.547          calculate D2E/DX2 analytically  !
 ! R2    R(1,4)                  1.5446         calculate D2E/DX2 analytically  !
 ! R3    R(1,12)                 1.0901         calculate D2E/DX2 analytically  !
 ! R4    R(1,13)                 1.0899         calculate D2E/DX2 analytically  !
 ! R5    R(2,3)                  1.5502         calculate D2E/DX2 analytically  !
 ! R6    R(2,14)                 1.0905         calculate D2E/DX2 analytically  !
 ! R7    R(2,15)                 1.0884         calculate D2E/DX2 analytically  !
 ! R8    R(3,4)                  1.5863         calculate D2E/DX2 analytically  !
 ! R9    R(3,7)                  1.4969         calculate D2E/DX2 analytically  !
 ! R10   R(3,16)                 1.0939         calculate D2E/DX2 analytically  !
 ! R11   R(4,5)                  1.491          calculate D2E/DX2 analytically  !
 ! R12   R(4,17)                 1.0952         calculate D2E/DX2 analytically  !
 ! R13   R(5,6)                  1.3278         calculate D2E/DX2 analytically  !
 ! R14   R(5,9)                  1.0884         calculate D2E/DX2 analytically  !
 ! R15   R(6,10)                 1.0826         calculate D2E/DX2 analytically  !
 ! R16   R(6,11)                 1.0833         calculate D2E/DX2 analytically  !
 ! R17   R(7,8)                  1.3277         calculate D2E/DX2 analytically  !
 ! R18   R(7,19)                 1.0875         calculate D2E/DX2 analytically  !
 ! R19   R(8,18)                 1.0828         calculate D2E/DX2 analytically  !
 ! R20   R(8,20)                 1.0826         calculate D2E/DX2 analytically  !
 ! A1    A(2,1,4)               88.9009         calculate D2E/DX2 analytically  !
 ! A2    A(2,1,12)             111.2518         calculate D2E/DX2 analytically  !
 ! A3    A(2,1,13)             117.8448         calculate D2E/DX2 analytically  !
 ! A4    A(4,1,12)             111.7165         calculate D2E/DX2 analytically  !
 ! A5    A(4,1,13)             117.1991         calculate D2E/DX2 analytically  !
 ! A6    A(12,1,13)            108.7944         calculate D2E/DX2 analytically  !
 ! A7    A(1,2,3)               89.5614         calculate D2E/DX2 analytically  !
 ! A8    A(1,2,14)             112.0073         calculate D2E/DX2 analytically  !
 ! A9    A(1,2,15)             117.3307         calculate D2E/DX2 analytically  !
 ! A10   A(3,2,14)             111.0929         calculate D2E/DX2 analytically  !
 ! A11   A(3,2,15)             117.7047         calculate D2E/DX2 analytically  !
 ! A12   A(14,2,15)            108.2263         calculate D2E/DX2 analytically  !
 ! A13   A(2,3,4)               87.2949         calculate D2E/DX2 analytically  !
 ! A14   A(2,3,7)              117.6403         calculate D2E/DX2 analytically  !
 ! A15   A(2,3,16)             114.9758         calculate D2E/DX2 analytically  !
 ! A16   A(4,3,7)              114.9018         calculate D2E/DX2 analytically  !
 ! A17   A(4,3,16)             112.83           calculate D2E/DX2 analytically  !
 ! A18   A(7,3,16)             108.16           calculate D2E/DX2 analytically  !
 ! A19   A(1,4,3)               88.3337         calculate D2E/DX2 analytically  !
 ! A20   A(1,4,5)              121.8775         calculate D2E/DX2 analytically  !
 ! A21   A(1,4,17)             109.2684         calculate D2E/DX2 analytically  !
 ! A22   A(3,4,5)              120.4566         calculate D2E/DX2 analytically  !
 ! A23   A(3,4,17)             106.7508         calculate D2E/DX2 analytically  !
 ! A24   A(5,4,17)             108.2438         calculate D2E/DX2 analytically  !
 ! A25   A(4,5,6)              126.3245         calculate D2E/DX2 analytically  !
 ! A26   A(4,5,9)              115.2268         calculate D2E/DX2 analytically  !
 ! A27   A(6,5,9)              118.4403         calculate D2E/DX2 analytically  !
 ! A28   A(5,6,10)             121.3526         calculate D2E/DX2 analytically  !
 ! A29   A(5,6,11)             122.0258         calculate D2E/DX2 analytically  !
 ! A30   A(10,6,11)            116.6211         calculate D2E/DX2 analytically  !
 ! A31   A(3,7,8)              127.6394         calculate D2E/DX2 analytically  !
 ! A32   A(3,7,19)             114.3983         calculate D2E/DX2 analytically  !
 ! A33   A(8,7,19)             117.9581         calculate D2E/DX2 analytically  !
 ! A34   A(7,8,18)             122.623          calculate D2E/DX2 analytically  !
 ! A35   A(7,8,20)             120.9745         calculate D2E/DX2 analytically  !
 ! A36   A(18,8,20)            116.4021         calculate D2E/DX2 analytically  !
 ! D1    D(4,1,2,3)             18.5872         calculate D2E/DX2 analytically  !
 ! D2    D(4,1,2,14)           -94.0617         calculate D2E/DX2 analytically  !
 ! D3    D(4,1,2,15)           139.8787         calculate D2E/DX2 analytically  !
 ! D4    D(12,1,2,3)           -94.344          calculate D2E/DX2 analytically  !
 ! D5    D(12,1,2,14)          153.0072         calculate D2E/DX2 analytically  !
 ! D6    D(12,1,2,15)           26.9476         calculate D2E/DX2 analytically  !
 ! D7    D(13,1,2,3)           139.0446         calculate D2E/DX2 analytically  !
 ! D8    D(13,1,2,14)           26.3958         calculate D2E/DX2 analytically  !
 ! D9    D(13,1,2,15)          -99.6638         calculate D2E/DX2 analytically  !
 ! D10   D(2,1,4,3)            -18.1571         calculate D2E/DX2 analytically  !
 ! D11   D(2,1,4,5)           -143.5425         calculate D2E/DX2 analytically  !
 ! D12   D(2,1,4,17)            89.0167         calculate D2E/DX2 analytically  !
 ! D13   D(12,1,4,3)            94.337          calculate D2E/DX2 analytically  !
 ! D14   D(12,1,4,5)           -31.0484         calculate D2E/DX2 analytically  !
 ! D15   D(12,1,4,17)         -158.4892         calculate D2E/DX2 analytically  !
 ! D16   D(13,1,4,3)          -139.1803         calculate D2E/DX2 analytically  !
 ! D17   D(13,1,4,5)            95.4343         calculate D2E/DX2 analytically  !
 ! D18   D(13,1,4,17)          -32.0065         calculate D2E/DX2 analytically  !
 ! D19   D(1,2,3,4)            -18.0993         calculate D2E/DX2 analytically  !
 ! D20   D(1,2,3,7)             98.7146         calculate D2E/DX2 analytically  !
 ! D21   D(1,2,3,16)          -132.0842         calculate D2E/DX2 analytically  !
 ! D22   D(14,2,3,4)            95.3973         calculate D2E/DX2 analytically  !
 ! D23   D(14,2,3,7)          -147.7888         calculate D2E/DX2 analytically  !
 ! D24   D(14,2,3,16)          -18.5875         calculate D2E/DX2 analytically  !
 ! D25   D(15,2,3,4)          -139.0683         calculate D2E/DX2 analytically  !
 ! D26   D(15,2,3,7)           -22.2543         calculate D2E/DX2 analytically  !
 ! D27   D(15,2,3,16)          106.9469         calculate D2E/DX2 analytically  !
 ! D28   D(2,3,4,1)             18.1354         calculate D2E/DX2 analytically  !
 ! D29   D(2,3,4,5)            144.7046         calculate D2E/DX2 analytically  !
 ! D30   D(2,3,4,17)           -91.4984         calculate D2E/DX2 analytically  !
 ! D31   D(7,3,4,1)           -101.2123         calculate D2E/DX2 analytically  !
 ! D32   D(7,3,4,5)             25.3569         calculate D2E/DX2 analytically  !
 ! D33   D(7,3,4,17)           149.154          calculate D2E/DX2 analytically  !
 ! D34   D(16,3,4,1)           134.1593         calculate D2E/DX2 analytically  !
 ! D35   D(16,3,4,5)           -99.2715         calculate D2E/DX2 analytically  !
 ! D36   D(16,3,4,17)           24.5255         calculate D2E/DX2 analytically  !
 ! D37   D(2,3,7,8)             14.0316         calculate D2E/DX2 analytically  !
 ! D38   D(2,3,7,19)          -166.7311         calculate D2E/DX2 analytically  !
 ! D39   D(4,3,7,8)            114.656          calculate D2E/DX2 analytically  !
 ! D40   D(4,3,7,19)           -66.1067         calculate D2E/DX2 analytically  !
 ! D41   D(16,3,7,8)          -118.2976         calculate D2E/DX2 analytically  !
 ! D42   D(16,3,7,19)           60.9398         calculate D2E/DX2 analytically  !
 ! D43   D(1,4,5,6)             -6.2076         calculate D2E/DX2 analytically  !
 ! D44   D(1,4,5,9)            174.8684         calculate D2E/DX2 analytically  !
 ! D45   D(3,4,5,6)           -115.2318         calculate D2E/DX2 analytically  !
 ! D46   D(3,4,5,9)             65.8443         calculate D2E/DX2 analytically  !
 ! D47   D(17,4,5,6)           121.6839         calculate D2E/DX2 analytically  !
 ! D48   D(17,4,5,9)           -57.24           calculate D2E/DX2 analytically  !
 ! D49   D(4,5,6,10)          -178.9778         calculate D2E/DX2 analytically  !
 ! D50   D(4,5,6,11)             0.7586         calculate D2E/DX2 analytically  !
 ! D51   D(9,5,6,10)            -0.0848         calculate D2E/DX2 analytically  !
 ! D52   D(9,5,6,11)           179.6516         calculate D2E/DX2 analytically  !
 ! D53   D(3,7,8,18)            -0.6603         calculate D2E/DX2 analytically  !
 ! D54   D(3,7,8,20)           179.0916         calculate D2E/DX2 analytically  !
 ! D55   D(19,7,8,18)         -179.874          calculate D2E/DX2 analytically  !
 ! D56   D(19,7,8,20)           -0.1221         calculate D2E/DX2 analytically  !
 --------------------------------------------------------------------------------
 Trust Radius=3.00D-01 FncErr=1.00D-07 GrdErr=1.00D-07 EigMax=2.50D+02 EigMin=1.00D-04
 Number of steps in this run=      2 maximum allowed number of steps=      2.
 GradGradGradGradGradGradGradGradGradGradGradGradGradGradGradGradGradGrad

                          Input orientation:                          
 ---------------------------------------------------------------------
 Center     Atomic      Atomic             Coordinates (Angstroms)
 Number     Number       Type             X           Y           Z
 ---------------------------------------------------------------------
      1          6           0       -0.329566    1.399262   -0.699157
      2          6           0        1.111008    1.470272   -0.139762
      3          6           0        0.789566    0.284539    0.805730
      4          6           0       -0.745003    0.597976    0.554344
      5          6           0       -1.741278   -0.509189    0.486674
      6          6           0       -2.457268   -0.859191   -0.575379
      7          6           0        1.231589   -1.081316    0.381719
      8          6           0        2.089937   -1.392934   -0.582028
      9          1           0       -1.889388   -1.057363    1.415243
     10          1           0       -3.173071   -1.670036   -0.529804
     11          1           0       -2.360676   -0.349860   -1.526569
     12          1           0       -0.373544    0.788618   -1.601125
     13          1           0       -0.850293    2.338489   -0.885243
     14          1           0        1.285287    2.386569    0.425162
     15          1           0        1.928573    1.345933   -0.847424
     16          1           0        1.087482    0.431032    1.848043
     17          1           0       -1.058044    1.293342    1.340458
     18          1           0        2.574026   -0.644681   -1.196959
     19          1           0        0.791170   -1.894005    0.954597
     20          1           0        2.344573   -2.424554   -0.789224
 ---------------------------------------------------------------------
                    Distance matrix (angstroms):
                    1          2          3          4          5
     1  C    0.000000
     2  C    1.547003   0.000000
     3  C    2.181685   1.550240   0.000000
     4  C    1.544640   2.165054   1.586297   0.000000
     5  C    2.653547   3.527921   2.671511   1.490959   0.000000
     6  C    3.105326   4.283545   3.709112   2.516239   1.327818
     7  C    3.123902   2.607122   1.496907   2.599372   3.029238
     8  C    3.696495   3.058079   2.535893   3.645812   4.074474
     9  H    3.597046   4.220113   3.057614   2.188815   1.088426
    10  H    4.187456   5.326068   4.615897   3.494963   2.104952
    11  H    2.805253   4.157969   3.970656   2.799820   2.112389
    12  H    1.090122   2.191832   2.720270   2.195535   2.813166
    13  H    1.089923   2.270737   3.125258   2.261168   3.284095
    14  H    2.201504   1.090464   2.192966   2.708843   4.189188
    15  H    2.263630   1.088420   2.270862   3.110049   4.323089
    16  H    3.071437   2.243199   1.093906   2.249340   3.277076
    17  H    2.168393   2.631946   2.171930   1.095219   2.108287
    18  H    3.585576   2.780488   2.838752   3.953127   4.634094
    19  H    3.851825   3.552222   2.183625   2.954657   2.924031
    20  H    4.666980   4.136805   3.507294   4.526184   4.689426
                    6          7          8          9         10
     6  C    0.000000
     7  C    3.817465   0.000000
     8  C    4.578428   1.327658   0.000000
     9  H    2.079504   3.287741   4.465056   0.000000
    10  H    1.082553   4.536353   5.270557   2.409651   0.000000
    11  H    1.083287   4.132912   4.667774   3.062177   1.842930
    12  H    2.847689   3.163033   3.444774   3.847584   3.876862
    13  H    3.592150   4.199344   4.760295   4.231284   4.646494
    14  H    5.053984   3.468573   3.993311   4.787430   6.102865
    15  H    4.916521   2.808579   2.756423   5.047011   5.934958
    16  H    4.483626   2.111414   3.199533   3.356246   5.312340
    17  H    3.203382   3.435200   4.563093   2.494502   4.093022
    18  H    5.074081   2.117785   1.082758   5.188060   5.875847
    19  H    3.736846   1.087484   2.073423   2.845620   4.238964
    20  H    5.055073   2.100983   1.082594   4.965412   5.575033
                   11         12         13         14         15
    11  H    0.000000
    12  H    2.291372   0.000000
    13  H    3.149568   1.772534   0.000000
    14  H    4.958865   3.067736   2.506028   0.000000
    15  H    4.662039   2.485640   2.951050   1.765281   0.000000
    16  H    4.887493   3.762875   3.855414   2.426488   2.968168
    17  H    3.552014   3.062058   2.467638   2.743012   3.702631
    18  H    4.954477   3.302403   4.552190   3.671594   2.121633
    19  H    4.298221   3.883908   4.898308   4.341401   3.877907
    20  H    5.194940   4.286236   5.736111   5.073827   3.793813
                   16         17         18         19         20
    16  H    0.000000
    17  H    2.367383   0.000000
    18  H    3.555138   4.835944   0.000000
    19  H    2.508355   3.705086   3.060813   0.000000
    20  H    4.085318   5.471389   1.840338   2.394881   0.000000
 Stoichiometry    C8H12
 Framework group  C1[X(C8H12)]
 Deg. of freedom    54
 Full point group                 C1      NOp   1
 Largest Abelian subgroup         C1      NOp   1
 Largest concise Abelian subgroup C1      NOp   1
                         Standard orientation:                         
 ---------------------------------------------------------------------
 Center     Atomic      Atomic             Coordinates (Angstroms)
 Number     Number       Type             X           Y           Z
 ---------------------------------------------------------------------
      1          6           0       -0.329566    1.399262   -0.699157
      2          6           0        1.111008    1.470272   -0.139762
      3          6           0        0.789566    0.284539    0.805730
      4          6           0       -0.745003    0.597976    0.554344
      5          6           0       -1.741278   -0.509189    0.486674
      6          6           0       -2.457268   -0.859191   -0.575379
      7          6           0        1.231589   -1.081316    0.381719
      8          6           0        2.089937   -1.392934   -0.582028
      9          1           0       -1.889388   -1.057363    1.415243
     10          1           0       -3.173071   -1.670035   -0.529804
     11          1           0       -2.360676   -0.349860   -1.526569
     12          1           0       -0.373544    0.788618   -1.601125
     13          1           0       -0.850293    2.338489   -0.885243
     14          1           0        1.285287    2.386569    0.425162
     15          1           0        1.928573    1.345933   -0.847424
     16          1           0        1.087482    0.431032    1.848043
     17          1           0       -1.058044    1.293342    1.340458
     18          1           0        2.574026   -0.644681   -1.196959
     19          1           0        0.791170   -1.894005    0.954597
     20          1           0        2.344572   -2.424554   -0.789224
 ---------------------------------------------------------------------
 Rotational constants (GHZ):           2.7935539           1.6963919           1.3157300
 Standard basis: def2TZVP (5D, 7F)
 There are   360 symmetry adapted cartesian basis functions of A   symmetry.
 There are   320 symmetry adapted basis functions of A   symmetry.
   320 basis functions,   504 primitive gaussians,   360 cartesian basis functions
    30 alpha electrons       30 beta electrons
       nuclear repulsion energy       360.3732254893 Hartrees.
 NAtoms=   20 NActive=   20 NUniq=   20 SFac= 1.00D+00 NAtFMM=   60 NAOKFM=F Big=F
 Integral buffers will be    131072 words long.
 Raffenetti 2 integral format.
 Two-electron integral symmetry is turned on.
 One-electron integrals computed using PRISM.
   1 Symmetry operations used in ECPInt.
 ECPInt:  NShTT=    9316 NPrTT=   27240 LenC2=    9174 LenP2D=   21654.
 LDataN:  DoStor=T MaxTD1= 6 Len=  172
 NBasis=   320 RedAO= T EigKep=  3.42D-05  NBF=   320
 NBsUse=   320 1.00D-06 EigRej= -1.00D+00 NBFU=   320
 Initial guess from the checkpoint file:  "checkpoint.chk"
 B after Tr=     0.000000    0.000000    0.000000
         Rot=    1.000000   -0.000000    0.000000   -0.000000 Ang=   0.00 deg.
 Requested convergence on RMS density matrix=1.00D-08 within 128 cycles.
 Requested convergence on MAX density matrix=1.00D-06.
 Requested convergence on             energy=1.00D-06.
 No special actions if energy rises.
 SCF Done:  E(RB3LYP) =  -312.116805231     A.U. after    1 cycles
            NFock=  1  Conv=0.60D-08     -V/T= 2.0056
 DoSCS=F DFT=T ScalE2(SS,OS)=  1.000000  1.000000
 Range of M.O.s used for correlation:     1   320
 NBasis=   320 NAE=    30 NBE=    30 NFC=     0 NFV=     0
 NROrb=    320 NOA=    30 NOB=    30 NVA=   290 NVB=   290

 **** Warning!!: The largest alpha MO coefficient is  0.32804028D+02

   1 Symmetry operations used in ECPInt.
 ECPInt:  NShTT=    9316 NPrTT=   27240 LenC2=    9174 LenP2D=   21654.
 LDataN:  DoStor=T MaxTD1= 7 Len=  274
 Symmetrizing basis deriv contribution to polar:
 IMax=3 JMax=2 DiffMx= 0.00D+00
 G2DrvN: will do    21 centers at a time, making    1 passes.
 Calling FoFCou, ICntrl=  3107 FMM=F I1Cent=   0 AccDes= 0.00D+00.
 End of G2Drv F.D. properties file   721 does not exist.
 End of G2Drv F.D. properties file   722 does not exist.
 End of G2Drv F.D. properties file   788 does not exist.
          IDoAtm=11111111111111111111
          Differentiating once with respect to electric field.
                with respect to dipole field.
          Differentiating once with respect to nuclear coordinates.
 Keep R1 ints in memory in canonical form, NReq=1342483782.
          There are    63 degrees of freedom in the 1st order CPHF.  IDoFFX=6 NUNeed=     3.
     60 vectors produced by pass  0 Test12= 1.38D-14 1.59D-09 XBig12= 8.00D+01 4.16D+00.
 AX will form    60 AO Fock derivatives at one time.
     60 vectors produced by pass  1 Test12= 1.38D-14 1.59D-09 XBig12= 1.11D+01 7.16D-01.
     60 vectors produced by pass  2 Test12= 1.38D-14 1.59D-09 XBig12= 1.44D-01 3.98D-02.
     60 vectors produced by pass  3 Test12= 1.38D-14 1.59D-09 XBig12= 4.51D-04 3.11D-03.
     60 vectors produced by pass  4 Test12= 1.38D-14 1.59D-09 XBig12= 9.08D-07 1.34D-04.
     35 vectors produced by pass  5 Test12= 1.38D-14 1.59D-09 XBig12= 1.34D-09 4.76D-06.
      7 vectors produced by pass  6 Test12= 1.38D-14 1.59D-09 XBig12= 1.53D-12 1.50D-07.
      3 vectors produced by pass  7 Test12= 1.38D-14 1.59D-09 XBig12= 2.01D-15 4.78D-09.
 InvSVY:  IOpt=1 It=  1 EMax= 7.11D-15
 Solved reduced A of dimension   345 with    63 vectors.
 Isotropic polarizability for W=    0.000000       92.23 Bohr**3.
 End of Minotr F.D. properties file   721 does not exist.
 End of Minotr F.D. properties file   722 does not exist.
 End of Minotr F.D. properties file   788 does not exist.
   1 Symmetry operations used in ECPInt.
 ECPInt:  NShTT=    9316 NPrTT=   27240 LenC2=    9174 LenP2D=   21654.
 LDataN:  DoStor=T MaxTD1= 8 Len=  415
 Calling FoFJK, ICntrl=    100127 FMM=F ISym2X=0 I1Cent= 0 IOpClX= 0 NMat=1 NMatS=1 NMatT=0.
 Full mass-weighted force constant matrix:
 Low frequencies ---   -0.0003    0.0003    0.0005    5.7214    7.0339   10.4130
 Low frequencies ---   64.5856   96.0721  111.4211
 Diagonal vibrational polarizability:
        4.0394554       1.5613379       1.9417333
 Harmonic frequencies (cm**-1), IR intensities (KM/Mole), Raman scattering
 activities (A**4/AMU), depolarization ratios for plane and unpolarized
 incident light, reduced masses (AMU), force constants (mDyne/A),
 and normal coordinates:
                      1                      2                      3
                      A                      A                      A
 Frequencies --     64.5836                96.0682               111.4159
 Red. masses --      2.9303                 2.1763                 2.3475
 Frc consts  --      0.0072                 0.0118                 0.0172
 IR Inten    --      0.0066                 0.0325                 0.0379
  Atom  AN      X      Y      Z        X      Y      Z        X      Y      Z
     1   6    -0.04  -0.01  -0.00     0.01  -0.05  -0.02    -0.13   0.16   0.11
     2   6    -0.03  -0.03  -0.05    -0.01   0.01   0.00    -0.02  -0.02  -0.13
     3   6    -0.01  -0.04  -0.06     0.03   0.04   0.04     0.02   0.02  -0.06
     4   6    -0.00  -0.04  -0.01     0.02  -0.06  -0.03    -0.01   0.01   0.06
     5   6    -0.03  -0.02  -0.01     0.07  -0.11  -0.08     0.06  -0.05  -0.04
     6   6    -0.20   0.14   0.05    -0.13   0.12  -0.02     0.08   0.01  -0.07
     7   6     0.03  -0.03  -0.07     0.11   0.04   0.14    -0.00  -0.02   0.05
     8   6     0.27   0.03   0.13    -0.09   0.00  -0.03    -0.01  -0.12   0.08
     9   1     0.09  -0.14  -0.06     0.26  -0.31  -0.17     0.11  -0.16  -0.10
    10   1    -0.22   0.16   0.05    -0.10   0.09  -0.06     0.15  -0.05  -0.15
    11   1    -0.32   0.27   0.11    -0.32   0.34   0.08     0.03   0.11  -0.02
    12   1    -0.07   0.01  -0.01     0.04  -0.06  -0.02    -0.33   0.31   0.02
    13   1    -0.05  -0.01   0.03    -0.02  -0.07  -0.04    -0.08   0.23   0.35
    14   1    -0.00  -0.03  -0.04    -0.04   0.04  -0.03     0.22  -0.03  -0.18
    15   1    -0.05  -0.02  -0.08     0.01   0.02   0.02    -0.18  -0.14  -0.29
    16   1     0.02  -0.05  -0.06    -0.02   0.11   0.04     0.09   0.10  -0.09
[...]
 0.00022470,0.00036483,-0.00152961,0.00840429,0.01038733,0.00101564,-0.
 00068173,-0.00003007,-0.00002036,0.00023945,0.00011304,0.00001847,-0.0
 0001982,-0.00000770,-0.26040720,0.06325246,0.23580893,0.42222480,0.000
 54356,0.00023374,-0.00031071,-0.00004648,0.00151962,-0.00090286,0.0217
 8617,-0.00554807,-0.02334523,-0.00045583,-0.00297155,-0.00255587,-0.00
 095175,-0.00090175,0.00033512,0.00030698,0.00075243,0.00023931,0.06866
 025,-0.13510872,-0.07088472,-0.05306693,0.64662409,-0.00034881,-0.0005
 9337,-0.00055730,0.00034876,-0.00026766,0.00002446,0.01182604,-0.01103
 951,-0.00390508,-0.00415709,0.00106589,-0.00084268,-0.00056343,-0.0000
 5500,-0.00045035,0.00007905,0.00043793,0.00039879,0.23580655,-0.063807
 66,-0.31553208,-0.35889516,0.01642447,0.51728575,-0.00038455,-0.003196
 81,-0.00196171,0.00024830,-0.00002231,0.00024455,0.00063872,0.00105723
 ,-0.00025739,-0.00069831,-0.01133798,0.01913080,-0.05342248,-0.0269560
 1,0.03077703,0.00644595,0.00735781,-0.01817264,-0.00012105,-0.00016482
 ,-0.00002916,-0.00001200,0.00023792,0.00000830,0.04713679,-0.00219012,
 -0.00078358,-0.00296626,-0.00071794,-0.00020969,0.00077278,-0.00090172
 ,0.00006626,0.00015507,-0.00268523,-0.01040739,0.02178894,-0.02520508,
 -0.11788641,0.11701008,-0.00143253,0.00819155,-0.00762081,-0.00011441,
 -0.00023783,-0.00013445,0.00001149,0.00012895,0.00001446,0.03466859,0.
 11768453,-0.00113053,-0.00043126,0.00117278,0.00014702,-0.00012862,0.0
 0002865,-0.00001005,0.00042417,0.00010363,-0.00049461,-0.00095000,0.00
 253183,0.02713757,0.11356032,-0.24429679,0.00325131,0.01551047,-0.0224
 6698,0.00004563,0.00065411,-0.00021088,-0.00003799,-0.00029628,0.00010
 503,-0.02638111,-0.12713391,0.26323366,0.00015343,0.00009589,-0.000447
 52,0.00024440,-0.00012735,0.00004254,0.00063326,0.00093960,0.00018491,
 0.00684339,-0.00524991,-0.00451278,-0.00834846,-0.01406629,0.00233462,
 -0.16575966,-0.14825654,0.00519456,-0.00012877,0.00008382,0.00003761,-
 0.00003913,0.00005116,0.00003959,-0.00355476,0.00431304,0.00157436,0.1
 7077327,0.00014012,0.00040257,0.00027697,-0.00030663,0.00019359,-0.000
 04664,-0.00058115,-0.00149447,-0.00049028,-0.00574167,0.00667463,0.001
 30417,-0.00519462,-0.00304835,0.00184049,-0.14960538,-0.20559067,0.015
 38881,0.00017541,-0.00028105,-0.00006234,-0.00000677,0.00006224,0.0000
 1467,0.00423713,-0.00253578,-0.00181135,0.16442297,0.21167022,0.000452
 11,-0.00005041,-0.00005323,-0.00030805,0.00031701,0.00026725,-0.000238
 04,-0.00099296,-0.00031497,-0.00349056,0.00296327,-0.00255745,-0.01981
 806,-0.02168658,0.00301192,0.00857211,0.01873681,-0.05530826,0.0001080
 4,-0.00023931,-0.00003110,-0.00000675,0.00009553,0.00005036,0.00186832
 ,-0.00161337,0.00070658,-0.00312249,-0.01555638,0.05193451,-0.00005626
 ,-0.00040369,-0.00026696,-0.00027913,0.00056346,-0.00000044,-0.0002926
 6,-0.00074961,-0.00040235,-0.00387631,0.00390159,0.00134903,0.00744356
 ,0.00834087,-0.01576691,-0.04911450,-0.02410746,0.02093318,0.00021530,
 -0.00013650,-0.00000323,0.00002536,0.00004749,0.00011585,0.00444090,-0
 .00596716,-0.00486196,0.00085333,-0.00838935,0.01631143,0.04092849,-0.
 00019379,-0.00054875,-0.00014214,0.00021818,-0.00009105,-0.00029124,0.
 00035800,0.00078534,0.00034473,0.00356520,-0.00293016,-0.00163191,-0.0
 0007592,0.00870801,-0.00631374,-0.02263587,-0.11163801,0.12017718,-0.0
 0020904,0.00021368,0.00002316,-0.00000495,-0.00009980,-0.00013823,-0.0
 0606132,0.00507569,0.00019112,-0.00099314,-0.00678740,0.01827200,0.026
 97767,0.10816551,0.00034897,-0.00057507,0.00009949,-0.00001105,0.00006
 456,0.00036621,0.00022076,0.00037017,0.00005680,0.00337704,0.00023952,
 0.00001646,0.00215153,0.01371521,-0.02092629,0.01862488,0.11735713,-0.
 26484648,0.00000346,0.00009918,-0.00007572,-0.00001359,-0.00004503,0.0
 0006877,-0.00484924,0.00024495,-0.00166089,-0.00098657,-0.00077596,0.0
 0163006,-0.01856588,-0.13047805,0.28445219,-0.04439820,-0.00168590,-0.
 00795034,-0.00270645,-0.01964143,-0.02661725,-0.00067188,-0.00017129,0
 .00058690,-0.00034969,0.00910710,0.01222728,0.00079458,0.00051178,-0.0
 0094889,-0.00031132,-0.00018434,0.00057011,0.00040299,0.00007100,-0.00
 040898,-0.00008192,0.00016534,0.00010915,0.00025217,0.00009526,-0.0001
 9498,0.00008526,0.00011468,-0.00027082,-0.00114332,-0.00061958,-0.0000
 4472,0.05071816,-0.00177298,-0.13439646,-0.12260196,-0.00103330,-0.003
 32220,-0.00347833,-0.00042435,-0.00044305,-0.00047248,0.00137878,0.010
 98271,0.01329324,-0.00053381,0.00079264,-0.00066304,-0.00054488,-0.000
 13994,-0.00025878,0.00031319,-0.00019508,0.00007990,0.00014652,-0.0002
 1656,0.00016756,0.00031782,0.00020654,-0.00007233,0.00013749,-0.000052
 54,0.00007706,-0.00074078,-0.00025385,0.00032782,0.00537513,0.14134223
 ,-0.00848462,-0.12180663,-0.22569239,-0.00060961,-0.00352666,-0.004540
 32,0.00009973,0.00014414,0.00026641,0.00117811,-0.01408646,-0.02133576
 ,-0.00122172,-0.00177449,0.00138414,-0.00007165,0.00035721,0.00013260,
 0.00020206,-0.00029521,-0.00041909,-0.00013126,0.00018393,0.00058592,-
 0.00013459,0.00007119,0.00010772,0.00006539,-0.00013730,0.00047400,0.0
 0038584,-0.00008674,0.00070621,0.00925305,0.13367795,0.24493693,-0.109
 01885,0.10720517,-0.01706120,-0.00796170,0.02360764,-0.00026511,-0.002
 27831,0.00000701,-0.00196957,0.00544938,-0.01144626,-0.00261272,0.0004
 1196,-0.00058545,0.00146528,0.00007915,0.00011629,-0.00009939,0.000375
 77,0.00001518,-0.00030723,-0.00004575,-0.00001510,0.00004375,-0.000622
 56,-0.00010758,0.00018520,-0.00006146,0.00005132,-0.00001301,0.0001149
 8,-0.00013068,-0.00011442,0.00097083,-0.00127616,0.00061046,0.11107674
 ,0.10731924,-0.24854221,0.03455307,-0.00304768,0.00643369,-0.00040441,
 -0.00031089,0.00030499,0.00197547,0.00629395,-0.00939415,-0.00225910,0
 .00052501,-0.00017956,0.00132448,-0.00023429,-0.00004737,0.00021380,-0
 .00003993,0.00060322,-0.00010611,0.00001517,-0.00004358,0.00000438,-0.
 00047392,-0.00027426,0.00005177,-0.00004309,-0.00002388,-0.00008843,0.
 00022010,-0.00015431,-0.00018311,0.00829485,-0.01504374,0.00279682,-0.
 11902617,0.26415223,-0.01696937,0.03357120,-0.05297292,-0.00321116,0.0
 0653540,-0.00329199,-0.00250631,0.00258520,-0.00432497,-0.01159129,0.0
 1862748,-0.00171671,-0.00111084,-0.00014734,-0.00158612,0.00009960,0.0
 0017163,0.00047476,0.00010768,-0.00061855,-0.00073006,-0.00008783,0.00
 018487,0.00048158,0.00057381,0.00022471,-0.00011914,0.00000703,0.00000
 508,0.00006005,0.00014138,0.00009541,0.00006241,0.01302938,-0.02317539
 ,0.00557252,0.02234034,-0.03831120,0.05640261,-0.00440707,-0.02438874,
 -0.01653911,-0.05366118,-0.03343600,-0.01741493,-0.00079784,-0.0008827
 3,-0.00032132,0.00000188,0.00069840,-0.00053044,-0.00021647,0.00009762
 ,0.00037555,-0.00009075,-0.00004762,-0.00013587,-0.00068471,0.00105819
 ,0.00013089,-0.00010633,0.00027870,-0.00001304,-0.00001797,-0.00007140
 ,0.00002189,-0.00001428,-0.00001447,0.00012898,0.00015405,-0.00000849,
 0.00012301,-0.00511048,-0.00114346,-0.00045611,0.00247355,0.00072573,-
 0.00000483,0.05677855,0.00067337,0.00373306,0.00199529,-0.03414825,-0.
 23160134,-0.11720485,-0.00171553,-0.02046012,-0.01264295,0.00041019,-0
 .00019043,0.00032336,-0.00033246,0.00018813,0.00021534,0.00006164,0.00
 007285,0.00002218,-0.00281685,-0.00173984,0.00331420,-0.00018772,0.000
 08175,0.00015366,0.00005510,-0.00003075,-0.00001836,0.00005823,-0.0000
 2484,-0.00002690,0.00000190,0.00000895,-0.00002649,0.00080014,0.000818
 13,0.00104786,-0.00068609,0.00095473,-0.00001933,0.03683035,0.25029720
 ,-0.00241487,-0.01212357,-0.00976682,-0.01751655,-0.11826754,-0.118325
 83,0.00260623,0.02011051,0.01118164,0.00005022,0.00025838,-0.00077758,
 -0.00007118,-0.00023807,0.00003337,-0.00005901,0.00005795,-0.00007770,
 0.00262236,0.00203287,-0.00241896,0.00023822,-0.00008570,-0.00006405,-
 0.00006676,-0.00005826,0.00004769,-0.00002559,-0.00005024,0.00005687,0
 .00008064,0.00002382,0.00010050,-0.00336558,-0.00002389,-0.00008533,0.
 00085963,0.00059700,0.00094591,0.02187603,0.12530846,0.12754819,-0.014
 43602,0.00392904,0.01711452,-0.19373700,0.02717064,0.12915726,-0.00150
 118,-0.00320962,-0.00075998,-0.00446472,-0.00284026,-0.00076612,0.0000
 3492,0.00027723,0.00143215,-0.00000624,-0.00009969,-0.00004382,-0.0000
 9158,0.00119140,0.00129977,-0.00021475,0.00046872,-0.00004529,-0.00021
 457,-0.00044276,0.00002947,-0.00003297,-0.00002052,-0.00004602,0.00001
 447,0.00012232,-0.00001053,0.00241228,0.00025364,-0.00011301,-0.002233
 01,-0.00056320,0.00003900,0.00471445,0.00000042,-0.00340004,0.20914272
 ,-0.00174449,-0.00246264,-0.00094480,0.02786381,-0.05263450,-0.0218567
 4,-0.01633771,0.00698360,0.01335943,-0.00286774,-0.00255851,0.00089084
 ,-0.00083444,0.00094152,0.00023528,-0.00013008,-0.00027538,-0.00015206
 ,0.00096994,0.00172446,-0.00104384,-0.00019308,-0.00128845,0.00037024,
 0.00007910,-0.00005193,0.00007090,0.00008527,-0.00012005,-0.00010422,-
 0.00010226,0.00007452,0.00000683,-0.00049390,0.00091225,-0.00006179,0.
 00062596,0.00002831,0.00017056,0.02078889,-0.00273753,-0.01790518,-0.0
 2769338,0.05430933,-0.00964492,0.00349528,0.01166165,0.12970387,-0.021
 30523,-0.16473893,0.01011734,-0.00566242,-0.01064727,-0.00050511,0.001
 37428,-0.00064319,0.00011195,-0.00108128,0.00084543,0.00025985,0.00030
 512,0.00007139,0.00028138,-0.00235318,0.00054803,-0.00024588,-0.000369
 29,0.00013372,-0.00012239,-0.00017963,-0.00006197,-0.00002277,0.000085
 10,0.00006933,0.00003920,0.00000920,-0.00002538,0.00129348,0.00034123,
 0.00118202,-0.00132984,0.00012655,-0.00019018,0.01239697,-0.00221988,-
 0.01073085,-0.14295451,0.02647157,0.17247700,-0.00253731,0.00180629,-0
 .00066110,0.00188818,0.00436642,0.00974109,-0.06094270,-0.01496678,-0.
 06299579,-0.00913598,-0.00478179,-0.02634224,-0.00122425,0.00252930,-0
 .00141450,-0.00051110,-0.00086997,0.00008413,0.00267646,0.00460355,0.0
 1242742,0.00008785,0.00102862,-0.00062090,-0.00022544,-0.00026594,0.00
 024045,0.00013320,-0.00033006,-0.00023566,-0.00010924,0.00017095,0.000
 08500,0.00009685,-0.00006258,-0.00011061,0.00042635,0.00065869,-0.0009
 5866,0.00089360,0.00101840,-0.00080618,-0.00032595,-0.00095516,0.00133
 578,0.06671909,0.00148304,-0.00241154,0.00207649,0.00578328,0.00329240
 ,0.02028241,-0.01468548,-0.05245381,-0.03637466,0.00202363,-0.00125140
 ,0.00303757,-0.00023678,0.00005409,0.00007747,0.00003439,0.00003185,0.
 00008626,-0.00519977,-0.00647968,-0.03236307,0.00031706,-0.00337546,0.
 00043957,-0.00004067,0.00002206,-0.00003026,0.00005505,-0.00002710,-0.
 00001826,-0.00003762,-0.00002926,0.00001121,0.00023041,0.00002039,0.00
 030252,0.00090351,-0.00018546,0.00069752,-0.00033810,0.00160452,-0.000
 49497,0.00029447,-0.00139851,0.00165813,0.00726985,0.06093660,-0.00122
 490,0.00297267,-0.00008066,-0.00369506,-0.00359267,-0.01234051,-0.0642
 0136,-0.03269559,-0.27732809,0.00040881,0.00052253,-0.00081400,-0.0001
 3985,0.00032855,-0.00010375,-0.00007247,-0.00007518,0.00001722,0.00022
 764,-0.00501492,-0.01112098,-0.00104627,-0.00156708,0.00145580,-0.0001
 3221,-0.00015002,-0.00001580,0.00000604,-0.00001868,0.00000620,0.00005
 430,0.00000151,0.00004264,0.00012206,-0.00025253,0.00013571,-0.0005976
 1,-0.00005260,-0.00063738,0.00026861,-0.00009755,0.00158381,-0.0003835
 1,0.00114336,-0.00114123,0.07018240,0.03890535,0.29842033,-0.00027061,
 0.00177490,0.00195097,0.00041327,0.00029298,-0.00083102,-0.01417838,0.
 02074736,0.01792214,-0.06013653,0.04137562,0.05398557,0.00435735,-0.01
 802213,-0.01862039,-0.00149959,-0.00157374,0.00111547,-0.00529707,-0.0
 0223821,0.00013897,-0.00004134,0.00139140,0.00034472,0.00055522,0.0008
 3527,0.00053294,-0.00168438,0.00099509,0.00011148,0.00068487,-0.000489
 16,-0.00032121,-0.00063345,-0.00045614,-0.00034704,0.00074062,-0.00028
 503,0.00014011,-0.00038271,-0.00051027,0.00028905,0.00005906,-0.000126
 31,-0.00031059,0.00230668,0.00074900,-0.00024925,0.07495655,-0.0051895
 1,0.01059201,0.01435226,0.00049372,-0.00014549,0.00018167,0.00585554,-
 0.00769408,-0.00707538,0.04266528,-0.14863554,-0.11597472,0.00380934,-
 0.01736060,-0.02056961,-0.00168203,-0.00235570,0.00173931,0.00237173,0
 .00085168,0.00066366,-0.00003349,-0.00037310,-0.00002370,-0.00017000,0
 .00073672,0.00074246,-0.00153390,0.00092383,-0.00011771,0.00058074,-0.
 00040846,-0.00024164,-0.00199536,-0.00106641,0.00311365,0.00058816,0.0
 0139874,-0.00058277,-0.00016901,0.00012429,-0.00007672,0.00023494,-0.0
 0002908,-0.00009704,-0.00103863,0.00091629,0.00034828,-0.04460428,0.16
 249172,0.00722582,-0.01589843,-0.02284040,-0.00111272,-0.00007218,0.00
 015526,-0.00531542,0.00609183,0.00530629,0.05650160,-0.11354680,-0.173
 65583,-0.00211279,-0.00366519,-0.00210842,0.00039292,-0.00031474,0.001
 61013,-0.00170330,0.00009890,0.00031370,-0.00002035,0.00045292,0.00029
 235,-0.00057047,-0.00034924,0.00053260,-0.00034612,0.00003913,-0.00000
 763,0.00051366,-0.00015207,-0.00010370,0.00254512,0.00303483,-0.003387
 56,-0.00109797,-0.00024234,0.00150541,0.00050585,0.00015318,0.00027776
 ,0.00012123,0.00021284,0.00003803,0.00060983,0.00025161,0.00148944,-0.
 05612589,0.12388975,0.19051367,-0.00015843,0.00003679,0.00003700,-0.00
 072040,-0.00020939,0.00019591,-0.00357905,-0.00113659,-0.00432547,0.00
 000787,0.00063765,0.00057155,0.00014122,0.00000539,0.00017703,0.000064
 58,-0.00002922,-0.00007684,-0.00451032,-0.01616083,0.01313595,-0.09828
 734,-0.08277254,0.07869751,0.00001527,0.00005851,-0.00003637,0.0000222
 4,0.00000292,-0.00001356,-0.00003791,0.00001355,-0.00002826,-0.0002321
 9,0.00004829,-0.00013675,0.00005056,-0.00004585,-0.00008903,0.00026594
 ,-0.00007506,-0.00027474,0.00063876,0.00082585,-0.00018502,0.00047352,
 -0.00067642,-0.00055711,-0.00024608,0.00013885,-0.00011967,0.09642312,
 -0.00011203,0.00010412,0.00004904,0.00108085,-0.00086634,-0.00078257,-
 0.00006676,-0.00059405,-0.00049518,-0.00013330,0.00009703,0.00016513,0
 .00003101,0.00013312,-0.00000362,-0.00002812,-0.00004559,-0.00002474,0
 .00220854,0.00941535,-0.00279146,-0.08519543,-0.19287227,0.11050281,0.
 00001574,-0.00001293,0.00002044,0.00001673,-0.00001665,-0.00000964,-0.
 00000969,0.00002145,0.00000529,-0.00003681,0.00004017,0.00000591,-0.00
 010226,-0.00002264,-0.00001752,-0.00020185,0.00022351,-0.00006860,0.00
 093668,-0.00209221,-0.00041156,-0.00006072,-0.00000399,0.00015707,-0.0
 0006069,0.00003667,0.00001294,0.09229170,0.20042769,-0.00002959,0.0000
 9040,0.00023585,-0.00022592,-0.00015222,-0.00011155,-0.00442887,0.0015
 6868,-0.00251676,-0.00021783,0.00066523,0.00032523,0.00023444,0.000065
 94,0.00014442,0.00000783,-0.00015088,-0.00009847,0.01203582,0.01793394
 ,-0.00942988,0.07863824,0.10769043,-0.13436658,-0.00010691,-0.00003611
 ,0.00008381,0.00000439,-0.00001217,-0.00000704,-0.00001721,0.00003532,
 0.00002562,-0.00003819,-0.00001933,-0.00009710,-0.00008834,-0.00002176
 ,-0.00001415,-0.00023117,-0.00002435,0.00024707,-0.00022058,-0.0006343
 5,0.00076236,0.00043751,-0.00066268,-0.00038103,-0.00019280,0.00006561
 ,-0.00007882,-0.09134541,-0.12061505,0.13762004,0.00032352,-0.00030910
 ,0.00019726,0.00041818,0.00229403,0.00113597,0.00476656,0.00736622,-0.
 00447441,0.00107836,-0.00114036,-0.00028971,-0.00032130,0.00029759,0.0
 0006146,-0.00008462,-0.00013216,0.00000068,-0.08963920,-0.07823824,0.0
 6293212,-0.00531758,-0.01693494,0.01506429,-0.00049182,0.00011007,-0.0
 0001045,-0.00007349,0.00004233,0.00000947,0.00004650,-0.00002310,0.000
 01654,-0.00007067,0.00004457,0.00000525,0.00006310,-0.00000744,0.00006
 885,0.00007123,0.00056630,-0.00048012,0.00011225,0.00003655,0.00004658
 ,0.00029938,-0.00008245,0.00022360,0.00008106,-0.00011964,0.00005707,0
 .00465220,0.00170825,0.00806429,0.08812561,-0.00034016,0.00022540,-0.0
 0010904,0.00139534,-0.00271782,-0.00459787,-0.01083157,-0.02177347,0.0
 1700213,-0.00048707,0.00083699,0.00022901,-0.00010274,-0.00031793,0.00
 026261,0.00016100,0.00053247,0.00008449,-0.08064698,-0.20523749,0.1066
 5160,0.00428997,0.00745165,-0.00503482,0.00038437,0.00028978,-0.000350
 65,-0.00001118,0.00006267,0.00004181,0.00001295,-0.00009256,-0.0001123
 1,0.00010114,0.00000958,0.00006014,0.00019939,0.00005726,0.00000650,0.
 00008855,-0.00126063,0.00112421,-0.00018085,0.00037120,0.00000652,-0.0
 0022943,0.00076743,-0.00074344,0.00004802,0.00002539,-0.00006941,0.001
 73543,0.00075124,-0.00112338,0.08473624,0.21864816,0.00008119,-0.00017
 915,0.00011948,0.00132041,-0.00103092,-0.00015182,-0.00322511,-0.00740
 829,0.00685692,0.00045197,0.00003708,0.00056316,0.00031022,0.00027248,
 0.00006771,0.00006989,-0.00030945,-0.00023916,0.06255701,0.10254345,-0
 .12243078,0.01331457,0.01969291,-0.01035227,0.00013951,-0.00004556,0.0
 0021909,-0.00002275,-0.00000966,-0.00000901,-0.00004135,0.00005249,0.0
 0001216,0.00006540,0.00004592,0.00002083,0.00010466,0.00004186,0.00002
 941,-0.00004220,-0.00019739,0.00007367,-0.00005800,-0.00006145,0.00006
 620,-0.00041779,0.00116812,0.00056999,-0.00015456,-0.00004345,-0.00004
 815,0.00814568,-0.00108597,0.00247827,-0.07806570,-0.11295344,0.124881
 26,0.00012183,0.00003651,-0.00003589,0.00009847,-0.00034095,0.00020536
 ,0.00588512,-0.00069101,0.00839296,0.00026395,-0.00106986,-0.00053678,
 -0.00013830,0.00000027,-0.00020569,-0.00008069,-0.00006232,0.00000349,
 -0.00251032,0.02208668,0.00486417,-0.05706919,0.05927727,0.02216016,0.
 00003220,0.00000964,-0.00000779,-0.00004440,0.00000865,0.00000107,-0.0
 0001249,0.00001918,-0.00000573,-0.00002353,-0.00002699,0.00001708,-0.0
 0001135,0.00002477,-0.00001785,0.00013654,-0.00000380,-0.00014175,0.00
 012908,0.00020320,-0.00026536,-0.00098920,0.00215362,0.00080613,0.0002
 1547,-0.00020244,0.00005161,0.00501647,-0.01228186,-0.00227970,-0.0040
 3925,-0.00032240,-0.00453307,0.05301959,-0.00002948,-0.00000228,-0.000
 14175,-0.00017399,0.00020304,0.00001708,0.00056853,0.00151766,0.000500
 93,0.00011083,-0.00032140,-0.00029941,-0.00006957,-0.00006933,-0.00002
 348,0.00004323,0.00006652,0.00003181,0.00007966,-0.00406964,0.00043258
 ,0.06257074,-0.31405516,-0.04863568,0.00001304,0.00002846,-0.00000274,
 0.00002215,0.00001302,0.00000069,-0.00000266,-0.00001954,-0.00000421,-
 0.00003822,0.00000517,0.00001398,0.00005613,-0.00002200,-0.00000347,0.
 00013543,-0.00006165,-0.00012045,0.00017078,0.00030361,-0.00019347,0.0
 0010899,-0.00002944,-0.00011906,0.00015632,-0.00002890,0.00007247,0.00
 531097,-0.01472368,-0.00466327,-0.00021473,0.00137068,-0.00052959,-0.0
 6881815,0.32989483,0.00011902,0.00014851,0.00000003,0.00032193,0.00067
 649,-0.00025179,0.00824709,0.00149935,0.00384093,0.00025312,-0.0017412
 1,-0.00131757,-0.00031862,-0.00024655,-0.00009444,0.00001077,0.0001006
 0,0.00006722,0.00678190,-0.02459958,-0.00245403,0.02185771,-0.04493670
 ,-0.05481216,0.00004226,0.00000544,-0.00004062,-0.00000444,0.00001657,
 0.00002154,0.00000180,0.00000818,-0.00000106,0.00003783,-0.00002746,0.
 00005254,-0.00005290,-0.00001612,0.00004896,-0.00013876,-0.00005548,0.
 00015064,-0.00039198,-0.00016742,0.00032384,-0.00058019,0.00094965,0.0
 0024227,0.00062133,-0.00029393,0.00019589,-0.00377240,0.01538728,0.005
 17872,-0.00456306,-0.00037467,-0.00272696,-0.02847241,0.05366704,0.051
 57606\\0.00000057,-0.00000224,0.00000726,0.00000152,0.00001127,0.00000
 911,0.00000736,-0.00001048,-0.00002203,-0.00001016,-0.00002747,-0.0000
 0610,0.00001130,0.00002146,-0.00000097,-0.00000232,-0.00000929,-0.0000
 0314,-0.00000721,0.00000448,0.00000305,0.00000695,-0.00000391,-0.00000
 692,-0.00000459,-0.00000327,0.00000480,0.00000055,-0.00000035,0.000005
 80,0.00000078,0.00000483,0.00000175,-0.00000043,0.00000443,-0.00000364
 ,-0.00000491,0.00000620,0.00000133,-0.00000164,0.00000275,-0.00000408,
 -0.00000223,-0.00000368,-0.00000350,0.00000273,0.00000256,0.00001041,0
 .00000811,0.00000488,0.00000764,-0.00000417,0.00000297,0.00000093,-0.0
 0000233,-0.00000391,-0.00000335,0.00000014,-0.00000122,0.00000166\\\@


 BE NOT THE FIRST BY WHOM THE NEW ARE TRIED,
 NOR YET THE THE LAST TO LAY THE OLD ASIDE.

                          -- ALEXANDER POPE
 Job cpu time:       0 days  1 hours 53 minutes 15.5 seconds.
 Elapsed time:       0 days  0 hours  9 minutes 44.7 seconds.
 File lengths (MBytes):  RWF=    167 Int=      0 D2E=      0 Chk=     32 Scr=      1
 Normal termination of Gaussian 16 at Fri Jun 10 21:50:26 2022.
