 Entering Gaussian System, Link 0=g16
 Input=int.gjf
 Output=int.out
 Initial command:
 /software/gaussian/g16-a03/l1.exe "/local_scratch/11171627/Gau-11696.inp" -scrdir="/local_scratch/11171627/"
 Entering Link 1 = /software/gaussian/g16-a03/l1.exe PID=     11697.
  
 Copyright (c) 1988,1990,1992,1993,1995,1998,2003,2009,2016,
            Gaussian, Inc.  All Rights Reserved.
  
 This is part of the Gaussian(R) 16 program.  It is based on
 the Gaussian(R) 09 system (copyright 2009, Gaussian, Inc.),
 the Gaussian(R) 03 system (copyright 2003, Gaussian, Inc.),
 the Gaussian(R) 98 system (copyright 1998, Gaussian, Inc.),
 the Gaussian(R) 94 system (copyright 1995, Gaussian, Inc.),
 the Gaussian 92(TM) system (copyright 1992, Gaussian, Inc.),
 the Gaussian 90(TM) system (copyright 1990, Gaussian, Inc.),
 the Gaussian 88(TM) system (copyright 1988, Gaussian, Inc.),
 the Gaussian 86(TM) system (copyright 1986, Carnegie Mellon
 University), and the Gaussian 82(TM) system (copyright 1983,
 Carnegie Mellon University). Gaussian is a federally registered
 trademark of Gaussian, Inc.
  
 This software contains proprietary and confidential information,
 including trade secrets, belonging to Gaussian, Inc.
  
 This software is provided under written license and may be
 used, copied, transmitted, or stored only in accord with that
 written license.
  
 The following legend is applicable only to US Government
 contracts under FAR:
  
                    RESTRICTED RIGHTS LEGEND
  
 Use, reproduction and disclosure by the US Government is
 subject to restrictions as set forth in subparagraphs (a)
 and (c) of the Commercial Computer Software - Restricted
 Rights clause in FAR 52.227-19.
  
 Gaussian, Inc.
 340 Quinnipiac St., Bldg. 40, Wallingford CT 06492
  
  
 ---------------------------------------------------------------
 Warning -- This program may not be used in any manner that
 competes with the business of Gaussian, Inc. or will provide
 assistance to any competitor of Gaussian, Inc.  The licensee
 of this program is prohibited from giving any competitor of
 Gaussian, Inc. access to this program.  By using this program,
 the user acknowledges that Gaussian, Inc. is engaged in the
 business of creating and licensing software in the field of
 computational chemistry and represents and warrants to the
 licensee that it is not a competitor of Gaussian, Inc. and that
 it will not use this program in any manner prohibited above.
 ---------------------------------------------------------------
  

 Cite this work as:
 Gaussian 16, Revision A.03,
 M. J. Frisch, G. W. Trucks, H. B. Schlegel, G. E. Scuseria, 
 M. A. Robb, J. R. Cheeseman, G. Scalmani, V. Barone, 
 G. A. Petersson, H. Nakatsuji, X. Li, M. Caricato, A. V. Marenich, 
 J. Bloino, B. G. Janesko, R. Gomperts, B. Mennucci, H. P. Hratchian, 
 J. V. Ortiz, A. F. Izmaylov, J. L. Sonnenberg, D. Williams-Young, 
 F. Ding, F. Lipparini, F. Egidi, J. Goings, B. Peng, A. Petrone, 
 T. Henderson, D. Ranasinghe, V. G. Zakrzewski, J. Gao, N. Rega, 
 G. Zheng, W. Liang, M. Hada, M. Ehara, K. Toyota, R. Fukuda, 
 J. Hasegawa, M. Ishida, T. Nakajima, Y. Honda, O. Kitao, H. Nakai, 
 T. Vreven, K. Throssell, J. A. Montgomery, Jr., J. E. Peralta, 
 F. Ogliaro, M. J. Bearpark, J. J. Heyd, E. N. Brothers, K. N. Kudin, 
 V. N. Staroverov, T. A. Keith, R. Kobayashi, J. Normand, 
 K. Raghavachari, A. P. Rendell, J. C. Burant, S. S. Iyengar, 
 J. Tomasi, M. Cossi, J. M. Millam, M. Klene, C. Adamo, R. Cammi, 
 J. W. Ochterski, R. L. Martin, K. Morokuma, O. Farkas, 
 J. B. Foresman, and D. J. Fox, Gaussian, Inc., Wallingford CT, 2016.
 
 ******************************************
 Gaussian 16:  ES64L-G16RevA.03 25-Dec-2016
                10-Jun-2022 
 ******************************************
 %nprocshared=12
 Will use up to   12 processors via shared memory.
 %chk=checkpoint.chk
 %mem=12GB
 ------------------------------------------
 # Opt B3LYP/Def2TZVP freq=noraman pop=none
 ------------------------------------------
 1/18=20,19=15,26=3,38=1/1,3;
 2/9=110,12=2,17=6,18=5,40=1/2;
 3/5=44,7=101,11=2,25=1,30=1,71=1,74=-5/1,2,3;
 4//1;
 5/5=2,38=5/2;
 7//1,2,3,16;
 1/18=20,19=15,26=3/3(2);
 2/9=110/2;
 99//99;
 2/9=110/2;
 3/5=44,7=101,11=2,25=1,30=1,71=1,74=-5/1,2,3;
 4/5=5,16=3,69=1/1;
 5/5=2,38=5/2;
 7//1,2,3,16;
 1/18=20,19=15,26=3/3(-5);
 2/9=110/2;
 99/9=1/99;
 -------------
 int_initalOpt
 -------------
 Symbolic Z-matrix:
 Charge =  0 Multiplicity = 1
 6                    -2.9522   -1.05091  -0.23031 
 6                    -1.50269  -1.0875    0.15086 
 1                    -3.28444  -0.05294  -0.5164 
 1                    -3.58366  -1.38823   0.59747 
 1                    -3.15293  -1.72386  -1.06942 
 6                    -0.68051  -0.04523   0.17782 
 6                    -1.02358   1.38412  -0.19412 
 8                     0.15424   2.15088   0.04527 
 1                    -1.82768   1.81077   0.40919 
 1                    -1.31588   1.45628  -1.25124 
 6                     1.26542   1.27092  -0.07766 
 6                     0.79692  -0.04066   0.56211 
 1                     2.114     1.73167   0.42652 
 1                     1.51939   1.1173   -1.13529 
 6                     1.56534  -1.28321   0.22655 
 1                     0.84614   0.09737   1.6519 
 6                     2.70427  -1.3495   -0.45245 
 1                     1.1404   -2.20613   0.61051 
 1                     3.19685  -0.47329  -0.85566 
 1                    -1.1162   -2.06492   0.42411 
 1                     3.19223  -2.29928  -0.63066 
 

 GradGradGradGradGradGradGradGradGradGradGradGradGradGradGradGradGradGrad
 Berny optimization.
 Initialization pass.
                           ----------------------------
                           !    Initial Parameters    !
                           ! (Angstroms and Degrees)  !
 --------------------------                            --------------------------
 ! Name  Definition              Value          Derivative Info.                !
 --------------------------------------------------------------------------------
 ! R1    R(1,2)                  1.4992         estimate D2E/DX2                !
 ! R2    R(1,3)                  1.09           estimate D2E/DX2                !
 ! R3    R(1,4)                  1.0944         estimate D2E/DX2                !
 ! R4    R(1,5)                  1.0942         estimate D2E/DX2                !
 ! R5    R(2,6)                  1.3278         estimate D2E/DX2                !
 ! R6    R(2,20)                 1.086          estimate D2E/DX2                !
 ! R7    R(6,7)                  1.5163         estimate D2E/DX2                !
 ! R8    R(6,12)                 1.5266         estimate D2E/DX2                !
 ! R9    R(7,8)                  1.4257         estimate D2E/DX2                !
 ! R10   R(7,9)                  1.0921         estimate D2E/DX2                !
 ! R11   R(7,10)                 1.0992         estimate D2E/DX2                !
 ! R12   R(8,11)                 1.4227         estimate D2E/DX2                !
 ! R13   R(11,12)                1.5327         estimate D2E/DX2                !
 ! R14   R(11,13)                1.0893         estimate D2E/DX2                !
 ! R15   R(11,14)                1.0985         estimate D2E/DX2                !
 ! R16   R(12,15)                1.499          estimate D2E/DX2                !
 ! R17   R(12,16)                1.0996         estimate D2E/DX2                !
 ! R18   R(15,17)                1.3276         estimate D2E/DX2                !
 ! R19   R(15,18)                1.0862         estimate D2E/DX2                !
 ! R20   R(17,19)                1.083          estimate D2E/DX2                !
 ! R21   R(17,21)                1.0826         estimate D2E/DX2                !
 ! A1    A(2,1,3)              112.5665         estimate D2E/DX2                !
 ! A2    A(2,1,4)              110.9791         estimate D2E/DX2                !
 ! A3    A(2,1,5)              110.9358         estimate D2E/DX2                !
 ! A4    A(3,1,4)              107.7491         estimate D2E/DX2                !
 ! A5    A(3,1,5)              107.8111         estimate D2E/DX2                !
 ! A6    A(4,1,5)              106.537          estimate D2E/DX2                !
 ! A7    A(1,2,6)              125.7801         estimate D2E/DX2                !
 ! A8    A(1,2,20)             115.4684         estimate D2E/DX2                !
 ! A9    A(6,2,20)             118.7514         estimate D2E/DX2                !
 ! A10   A(2,6,7)              126.5041         estimate D2E/DX2                !
 ! A11   A(2,6,12)             127.3532         estimate D2E/DX2                !
 ! A12   A(7,6,12)             106.1351         estimate D2E/DX2                !
 ! A13   A(6,7,8)              106.1934         estimate D2E/DX2                !
 ! A14   A(6,7,9)              113.5387         estimate D2E/DX2                !
 ! A15   A(6,7,10)             110.9761         estimate D2E/DX2                !
 ! A16   A(8,7,9)              107.7839         estimate D2E/DX2                !
 ! A17   A(8,7,10)             110.2361         estimate D2E/DX2                !
 ! A18   A(9,7,10)             108.051          estimate D2E/DX2                !
 ! A19   A(7,8,11)             107.3427         estimate D2E/DX2                !
 ! A20   A(8,11,12)            104.7428         estimate D2E/DX2                !
 ! A21   A(8,11,13)            107.8676         estimate D2E/DX2                !
 ! A22   A(8,11,14)            110.5028         estimate D2E/DX2                !
 ! A23   A(12,11,13)           114.0094         estimate D2E/DX2                !
 ! A24   A(12,11,14)           110.665          estimate D2E/DX2                !
 ! A25   A(13,11,14)           108.9458         estimate D2E/DX2                !
 ! A26   A(6,12,11)            101.1462         estimate D2E/DX2                !
 ! A27   A(6,12,15)            115.9304         estimate D2E/DX2                !
 ! A28   A(6,12,16)            107.048          estimate D2E/DX2                !
 ! A29   A(11,12,15)           117.3361         estimate D2E/DX2                !
 ! A30   A(11,12,16)           107.014          estimate D2E/DX2                !
 ! A31   A(15,12,16)           107.6361         estimate D2E/DX2                !
 ! A32   A(12,15,17)           126.5585         estimate D2E/DX2                !
 ! A33   A(12,15,18)           115.128          estimate D2E/DX2                !
 ! A34   A(17,15,18)           118.2933         estimate D2E/DX2                !
 ! A35   A(15,17,19)           122.6959         estimate D2E/DX2                !
 ! A36   A(15,17,21)           120.9762         estimate D2E/DX2                !
 ! A37   A(19,17,21)           116.3278         estimate D2E/DX2                !
 ! D1    D(3,1,2,6)              1.226          estimate D2E/DX2                !
 ! D2    D(3,1,2,20)          -178.7384         estimate D2E/DX2                !
 ! D3    D(4,1,2,6)           -119.6321         estimate D2E/DX2                !
 ! D4    D(4,1,2,20)            60.4035         estimate D2E/DX2                !
 ! D5    D(5,1,2,6)            122.133          estimate D2E/DX2                !
 ! D6    D(5,1,2,20)           -57.8314         estimate D2E/DX2                !
 ! D7    D(1,2,6,7)             -1.2931         estimate D2E/DX2                !
 ! D8    D(1,2,6,12)           179.8541         estimate D2E/DX2                !
 ! D9    D(20,2,6,7)           178.6702         estimate D2E/DX2                !
 ! D10   D(20,2,6,12)           -0.1826         estimate D2E/DX2                !
 ! D11   D(2,6,7,8)            177.6119         estimate D2E/DX2                !
 ! D12   D(2,6,7,9)             59.3557         estimate D2E/DX2                !
 ! D13   D(2,6,7,10)           -62.5811         estimate D2E/DX2                !
 ! D14   D(12,6,7,8)            -3.3373         estimate D2E/DX2                !
 ! D15   D(12,6,7,9)          -121.5936         estimate D2E/DX2                !
 ! D16   D(12,6,7,10)          116.4696         estimate D2E/DX2                !
 ! D17   D(2,6,12,11)          160.5148         estimate D2E/DX2                !
 ! D18   D(2,6,12,15)           32.4732         estimate D2E/DX2                !
 ! D19   D(2,6,12,16)          -87.6243         estimate D2E/DX2                !
 ! D20   D(7,6,12,11)          -18.5253         estimate D2E/DX2                !
 ! D21   D(7,6,12,15)         -146.5669         estimate D2E/DX2                !
 ! D22   D(7,6,12,16)           93.3357         estimate D2E/DX2                !
 ! D23   D(6,7,8,11)            26.3121         estimate D2E/DX2                !
 ! D24   D(9,7,8,11)           148.3097         estimate D2E/DX2                !
 ! D25   D(10,7,8,11)          -93.9759         estimate D2E/DX2                !
 ! D26   D(7,8,11,12)          -38.8856         estimate D2E/DX2                !
 ! D27   D(7,8,11,13)         -160.681          estimate D2E/DX2                !
 ! D28   D(7,8,11,14)           80.3233         estimate D2E/DX2                !
 ! D29   D(8,11,12,6)           34.5538         estimate D2E/DX2                !
 ! D30   D(8,11,12,15)         161.6794         estimate D2E/DX2                !
 ! D31   D(8,11,12,16)         -77.3332         estimate D2E/DX2                !
 ! D32   D(13,11,12,6)         152.2332         estimate D2E/DX2                !
 ! D33   D(13,11,12,15)        -80.6412         estimate D2E/DX2                !
 ! D34   D(13,11,12,16)         40.3462         estimate D2E/DX2                !
 ! D35   D(14,11,12,6)         -84.546          estimate D2E/DX2                !
 ! D36   D(14,11,12,15)         42.5797         estimate D2E/DX2                !
 ! D37   D(14,11,12,16)        163.5671         estimate D2E/DX2                !
 ! D38   D(6,12,15,17)         127.6128         estimate D2E/DX2                !
 ! D39   D(6,12,15,18)         -54.0619         estimate D2E/DX2                !
 ! D40   D(11,12,15,17)          8.0535         estimate D2E/DX2                !
 ! D41   D(11,12,15,18)       -173.6212         estimate D2E/DX2                !
 ! D42   D(16,12,15,17)       -112.6087         estimate D2E/DX2                !
 ! D43   D(16,12,15,18)         65.7166         estimate D2E/DX2                !
 ! D44   D(12,15,17,19)         -0.9114         estimate D2E/DX2                !
 ! D45   D(12,15,17,21)        179.0289         estimate D2E/DX2                !
 ! D46   D(18,15,17,19)       -179.1895         estimate D2E/DX2                !
 ! D47   D(18,15,17,21)          0.7509         estimate D2E/DX2                !
 --------------------------------------------------------------------------------
 Trust Radius=3.00D-01 FncErr=1.00D-07 GrdErr=1.00D-06 EigMax=2.50D+02 EigMin=1.00D-04
 Number of steps in this run=    115 maximum allowed number of steps=    126.
 GradGradGradGradGradGradGradGradGradGradGradGradGradGradGradGradGradGrad

                          Input orientation:                          
 ---------------------------------------------------------------------
 Center     Atomic      Atomic             Coordinates (Angstroms)
 Number     Number       Type             X           Y           Z
 ---------------------------------------------------------------------
      1          6           0       -2.952204   -1.050909   -0.230307
      2          6           0       -1.502688   -1.087500    0.150856
      3          1           0       -3.284436   -0.052938   -0.516403
      4          1           0       -3.583663   -1.388231    0.597471
      5          1           0       -3.152931   -1.723858   -1.069424
      6          6           0       -0.680506   -0.045227    0.177822
      7          6           0       -1.023578    1.384118   -0.194121
      8          8           0        0.154241    2.150880    0.045272
      9          1           0       -1.827683    1.810768    0.409193
     10          1           0       -1.315880    1.456280   -1.251236
     11          6           0        1.265419    1.270918   -0.077660
     12          6           0        0.796924   -0.040659    0.562112
     13          1           0        2.113995    1.731666    0.426516
     14          1           0        1.519387    1.117304   -1.135292
     15          6           0        1.565342   -1.283205    0.226546
     16          1           0        0.846136    0.097367    1.651896
     17          6           0        2.704270   -1.349497   -0.452445
     18          1           0        1.140396   -2.206131    0.610508
     19          1           0        3.196846   -0.473286   -0.855661
     20          1           0       -1.116201   -2.064923    0.424106
     21          1           0        3.192234   -2.299284   -0.630661
 ---------------------------------------------------------------------
                    Distance matrix (angstroms):
                    1          2          3          4          5
     1  C    0.000000
     2  C    1.499240   0.000000
     3  H    1.090034   2.165682   0.000000
     4  H    1.094414   2.149503   1.764443   0.000000
     5  H    1.094198   2.148799   1.764964   1.754057   0.000000
     6  C    2.517653   1.327796   2.694895   3.226156   3.238257
     7  C    3.106487   2.541152   2.698235   3.855719   3.867792
     8  O    4.469608   3.639185   4.122717   5.177080   5.214741
     9  H    3.140494   2.927852   2.540129   3.654109   4.054155
    10  H    3.163202   2.910597   2.587070   4.080662   3.677103
    11  C    4.816900   3.643730   4.758810   5.571398   5.429005
    12  C    3.962890   2.559926   4.221474   4.583311   4.593084
    13  H    5.817260   4.593918   5.763416   6.498176   6.474488
    14  H    5.051264   3.955790   4.982891   5.943172   5.468738
    15  C    4.546526   3.075197   5.058248   5.163416   4.912821
    16  H    4.391880   3.028862   4.667519   4.789774   5.168654
    17  C    5.668703   4.258064   6.127786   6.375102   5.901492
    18  H    4.334845   2.906632   5.048297   4.794357   4.635452
    19  H    6.207699   4.845199   6.503753   6.994571   6.475283
    20  H    2.197132   1.085999   3.103850   2.564437   2.548573
    21  H    6.282742   4.911363   6.856120   6.946302   6.386294
                    6          7          8          9         10
     6  C    0.000000
     7  C    1.516267   0.000000
     8  O    2.353138   1.425654   0.000000
     9  H    2.194143   1.092064   2.043560   0.000000
    10  H    2.168048   1.099154   2.079581   1.773310   0.000000
    11  C    2.363077   2.294752   1.422730   3.177380   2.841609
    12  C    1.526597   2.432305   2.341582   3.215545   3.161170
    13  H    3.320909   3.217195   2.040030   3.942510   3.828150
    14  H    2.813410   2.724640   2.079816   3.750894   2.857812
    15  C    2.564917   3.740866   3.717123   4.595503   4.241469
    16  H    2.126937   2.925635   2.697568   3.410185   3.866411
    17  C    3.681720   4.629928   4.359244   5.591806   4.967098
    18  H    2.858742   4.268501   4.502837   4.998550   4.786715
    19  H    4.035490   4.658279   4.117690   5.662389   4.923860
    20  H    2.080783   3.505234   4.419336   3.940483   3.904550
    21  H    4.553299   5.615255   5.430492   6.570646   5.900209
                   11         12         13         14         15
    11  C    0.000000
    12  C    1.532655   0.000000
    13  H    1.089295   2.212283   0.000000
    14  H    1.098491   2.178075   1.780518   0.000000
    15  C    2.589602   1.498997   3.070905   2.760282   0.000000
    16  H    2.131756   1.099592   2.404154   3.043346   2.110654
    17  C    3.012861   2.525936   3.258000   2.820520   1.327622
    18  H    3.546699   2.193076   4.060541   3.773151   1.086185
    19  H    2.716237   2.820793   2.770985   2.328527   2.118713
    20  H    4.129373   2.788680   4.984803   4.416403   2.800140
    21  H    4.094480   3.501657   4.304507   3.837466   2.100952
                   16         17         18         19         20
    16  H    0.000000
    17  C    3.158216   0.000000
    18  H    2.545031   2.075908   0.000000
    19  H    3.484153   1.083033   3.062905   0.000000
    20  H    3.167607   3.984492   2.268681   4.772157   0.000000
    21  H    4.056868   1.082573   2.399837   1.839814   4.441854
                   21
    21  H    0.000000
 Stoichiometry    C8H12O
 Framework group  C1[X(C8H12O)]
 Deg. of freedom    57
 Full point group                 C1      NOp   1
 Largest Abelian subgroup         C1      NOp   1
 Largest concise Abelian subgroup C1      NOp   1
                         Standard orientation:                         
 ---------------------------------------------------------------------
 Center     Atomic      Atomic             Coordinates (Angstroms)
 Number     Number       Type             X           Y           Z
 ---------------------------------------------------------------------
      1          6           0       -2.952204   -1.050909   -0.230307
      2          6           0       -1.502688   -1.087500    0.150856
      3          1           0       -3.284436   -0.052938   -0.516403
      4          1           0       -3.583663   -1.388231    0.597471
      5          1           0       -3.152931   -1.723858   -1.069424
      6          6           0       -0.680506   -0.045227    0.177822
      7          6           0       -1.023578    1.384118   -0.194121
      8          8           0        0.154241    2.150880    0.045272
      9          1           0       -1.827683    1.810768    0.409193
     10          1           0       -1.315880    1.456280   -1.251236
     11          6           0        1.265419    1.270918   -0.077660
     12          6           0        0.796924   -0.040659    0.562112
     13          1           0        2.113995    1.731666    0.426516
     14          1           0        1.519387    1.117304   -1.135292
     15          6           0        1.565342   -1.283205    0.226546
     16          1           0        0.846136    0.097367    1.651896
     17          6           0        2.704270   -1.349497   -0.452445
     18          1           0        1.140396   -2.206131    0.610508
     19          1           0        3.196846   -0.473286   -0.855661
     20          1           0       -1.116201   -2.064923    0.424106
     21          1           0        3.192234   -2.299284   -0.630661
 ---------------------------------------------------------------------
 Rotational constants (GHZ):           2.1699046           1.3231418           0.8735132
 Standard basis: def2TZVP (5D, 7F)
 There are   396 symmetry adapted cartesian basis functions of A   symmetry.
 There are   351 symmetry adapted basis functions of A   symmetry.
   351 basis functions,   555 primitive gaussians,   396 cartesian basis functions
    34 alpha electrons       34 beta electrons
       nuclear repulsion energy       444.5741771336 Hartrees.
 NAtoms=   21 NActive=   21 NUniq=   21 SFac= 1.00D+00 NAtFMM=   60 NAOKFM=F Big=F
 Integral buffers will be    131072 words long.
 Raffenetti 2 integral format.
 Two-electron integral symmetry is turned on.
 One-electron integrals computed using PRISM.
   1 Symmetry operations used in ECPInt.
 ECPInt:  NShTT=   10878 NPrTT=   32112 LenC2=   10560 LenP2D=   24705.
 LDataN:  DoStor=T MaxTD1= 6 Len=  172
 NBasis=   351 RedAO= T EigKep=  6.87D-05  NBF=   351
 NBsUse=   351 1.00D-06 EigRej= -1.00D+00 NBFU=   351
 ExpMin= 9.52D-02 ExpMax= 2.70D+04 ExpMxC= 9.22D+02 IAcc=3 IRadAn=         5 AccDes= 0.00D+00
 Harris functional with IExCor=  402 and IRadAn=       5 diagonalized for initial guess.
 HarFok:  IExCor=  402 AccDes= 0.00D+00 IRadAn=         5 IDoV= 1 UseB2=F ITyADJ=14
 ICtDFT=  3500011 ScaDFX=  1.000000  1.000000  1.000000  1.000000
 FoFCou: FMM=F IPFlag=           0 FMFlag=      100000 FMFlg1=           0
         NFxFlg=           0 DoJE=T BraDBF=F KetDBF=T FulRan=T
         wScrn=  0.000000 ICntrl=       500 IOpCl=  0 I1Cent=   200000004 NGrid=           0
         NMat0=    1 NMatS0=      1 NMatT0=    0 NMatD0=    1 NMtDS0=    0 NMtDT0=    0
 Petite list used in FoFCou.
 Requested convergence on RMS density matrix=1.00D-08 within 128 cycles.
 Requested convergence on MAX density matrix=1.00D-06.
 Requested convergence on             energy=1.00D-06.
 No special actions if energy rises.
 Integral accuracy reduced to 1.0D-05 until final iterations.
 Initial convergence to 1.0D-05 achieved.  Increase integral accuracy.
 SCF Done:  E(RB3LYP) =  -387.391422067     A.U. after   14 cycles
            NFock= 14  Conv=0.53D-08     -V/T= 2.0053
   1 Symmetry operations used in ECPInt.
 ECPInt:  NShTT=   10878 NPrTT=   32112 LenC2=   10560 LenP2D=   24705.
 LDataN:  DoStor=T MaxTD1= 7 Len=  274
 Calling FoFJK, ICntrl=      2127 FMM=F ISym2X=0 I1Cent= 0 IOpClX= 0 NMat=1 NMatS=1 NMatT=0.
 ***** Axes restored to original set *****
 -------------------------------------------------------------------
 Center     Atomic                   Forces (Hartrees/Bohr)
 Number     Number              X              Y              Z
 -------------------------------------------------------------------
      1        6          -0.000000008    0.000000567    0.000000117
      2        6           0.000001867   -0.000001166    0.000002331
      3        1          -0.000000393    0.000000556    0.000002243
      4        1           0.000000830   -0.000001850    0.000000005
      5        1          -0.000000712    0.000000947   -0.000002506
      6        6          -0.000005751   -0.000004125   -0.000002162
      7        6           0.000013917   -0.000002643   -0.000003922
      8        8          -0.000007244    0.000009801   -0.000006515
      9        1          -0.000002960   -0.000000729    0.000005111
     10        1          -0.000004272    0.000004862    0.000002307
     11        6           0.000002857   -0.000017481    0.000004018
     12        6          -0.000003062    0.000023063    0.000013799
     13        1           0.000000862    0.000002891   -0.000000237
     14        1          -0.000001909    0.000001992    0.000002803
     15        6           0.000007023   -0.000008971   -0.000011615
     16        1          -0.000000325   -0.000004624   -0.000006817
     17        6           0.000006667   -0.000004527   -0.000009477
     18        1           0.000001539   -0.000002100    0.000001842
     19        1          -0.000004214   -0.000018363    0.000006498
     20        1          -0.000000542    0.000000247    0.000002231
     21        1          -0.000004170    0.000021655   -0.000000051
 -------------------------------------------------------------------
 Cartesian Forces:  Max     0.000023063 RMS     0.000006952

 GradGradGradGradGradGradGradGradGradGradGradGradGradGradGradGradGradGrad
 Berny optimization.
 FormGI is forming the generalized inverse of G from B-inverse, IUseBI=4.
 Internal  Forces:  Max     0.000020863 RMS     0.000003877
 Search for a local minimum.
 Step number   1 out of a maximum of  115
 All quantities printed in internal units (Hartrees-Bohrs-Radians)
 Mixed Optimization -- En-DIIS/RFO-DIIS
 Second derivative matrix not updated -- first step.
 ITU=  0
     Eigenvalues ---    0.00533   0.00776   0.00779   0.01013   0.01374
     Eigenvalues ---    0.01715   0.01718   0.03044   0.03046   0.03046
     Eigenvalues ---    0.03684   0.04209   0.04964   0.05547   0.06144
     Eigenvalues ---    0.07008   0.07015   0.07276   0.07373   0.10269
     Eigenvalues ---    0.11146   0.11315   0.11431   0.13964   0.15996
     Eigenvalues ---    0.16000   0.16000   0.16000   0.16000   0.16000
     Eigenvalues ---    0.16000   0.21084   0.21945   0.22000   0.22001
     Eigenvalues ---    0.24992   0.27718   0.28973   0.30041   0.32457
     Eigenvalues ---    0.32483   0.33727   0.33776   0.33850   0.34307
     Eigenvalues ---    0.34332   0.34575   0.34809   0.34894   0.35257
     Eigenvalues ---    0.35279   0.35630   0.35685   0.39657   0.39905
     Eigenvalues ---    0.60029   0.60071
 RFO step:  Lambda=-1.10757158D-08 EMin= 5.32897913D-03
 Linear search not attempted -- first point.
 Iteration  1 RMS(Cart)=  0.00009511 RMS(Int)=  0.00000001
 Iteration  2 RMS(Cart)=  0.00000001 RMS(Int)=  0.00000000
 Variable       Old X    -DE/DX   Delta X   Delta X   Delta X     New X
                                 (Linear)    (Quad)   (Total)
    R1        2.83315   0.00000   0.00000   0.00000   0.00000   2.83316
    R2        2.05987   0.00000   0.00000   0.00000   0.00000   2.05987
    R3        2.06814  -0.00000   0.00000  -0.00000  -0.00000   2.06814
    R4        2.06773   0.00000   0.00000   0.00001   0.00001   2.06774
    R5        2.50917  -0.00000   0.00000  -0.00000  -0.00000   2.50917
    R6        2.05224   0.00000   0.00000   0.00000   0.00000   2.05224
    R7        2.86533   0.00000   0.00000   0.00001   0.00001   2.86534
    R8        2.88485   0.00000   0.00000   0.00000   0.00000   2.88486
    R9        2.69410  -0.00000   0.00000  -0.00001  -0.00001   2.69409
   R10        2.06370   0.00000   0.00000   0.00001   0.00001   2.06371
   R11        2.07710   0.00000   0.00000   0.00000   0.00000   2.07710
   R12        2.68857   0.00001   0.00000   0.00002   0.00002   2.68859
   R13        2.89630  -0.00001   0.00000  -0.00002  -0.00002   2.89628
   R14        2.05847   0.00000   0.00000   0.00000   0.00000   2.05847
   R15        2.07585  -0.00000   0.00000  -0.00001  -0.00001   2.07584
   R16        2.83269   0.00002   0.00000   0.00005   0.00005   2.83274
   R17        2.07793  -0.00001   0.00000  -0.00002  -0.00002   2.07791
   R18        2.50884  -0.00000   0.00000  -0.00000  -0.00000   2.50884
   R19        2.05259   0.00000   0.00000   0.00001   0.00001   2.05260
   R20        2.04664  -0.00002   0.00000  -0.00006  -0.00006   2.04658
   R21        2.04577  -0.00002   0.00000  -0.00006  -0.00006   2.04571
    A1        1.96466  -0.00000   0.00000  -0.00000  -0.00000   1.96465
    A2        1.93695  -0.00000   0.00000  -0.00000  -0.00000   1.93695
    A3        1.93619   0.00000   0.00000   0.00001   0.00001   1.93620
    A4        1.88058   0.00000   0.00000   0.00000   0.00000   1.88058
    A5        1.88166  -0.00000   0.00000  -0.00000  -0.00000   1.88166
    A6        1.85942   0.00000   0.00000   0.00000   0.00000   1.85942
    A7        2.19528  -0.00000   0.00000  -0.00001  -0.00001   2.19527
    A8        2.01530   0.00000   0.00000   0.00000   0.00000   2.01531
    A9        2.07260   0.00000   0.00000   0.00000   0.00000   2.07261
   A10        2.20791   0.00000   0.00000   0.00001   0.00001   2.20792
   A11        2.22273  -0.00000   0.00000  -0.00000  -0.00000   2.22273
   A12        1.85241  -0.00000   0.00000  -0.00001  -0.00001   1.85240
   A13        1.85343   0.00000   0.00000   0.00003   0.00003   1.85345
   A14        1.98162  -0.00000   0.00000  -0.00004  -0.00004   1.98158
   A15        1.93690   0.00000   0.00000   0.00004   0.00004   1.93694
   A16        1.88118  -0.00000   0.00000  -0.00001  -0.00001   1.88117
   A17        1.92398  -0.00000   0.00000   0.00001   0.00001   1.92399
   A18        1.88585  -0.00000   0.00000  -0.00002  -0.00002   1.88582
   A19        1.87348  -0.00000   0.00000   0.00000   0.00000   1.87348
   A20        1.82811   0.00000   0.00000   0.00003   0.00003   1.82814
   A21        1.88264  -0.00000   0.00000  -0.00001  -0.00001   1.88263
   A22        1.92864  -0.00000   0.00000  -0.00003  -0.00003   1.92861
   A23        1.98984   0.00000   0.00000   0.00003   0.00003   1.98987
   A24        1.93147  -0.00000   0.00000  -0.00001  -0.00001   1.93146
   A25        1.90146  -0.00000   0.00000  -0.00001  -0.00001   1.90146
   A26        1.76533   0.00000   0.00000  -0.00000  -0.00000   1.76533
   A27        2.02337  -0.00000   0.00000  -0.00002  -0.00002   2.02335
   A28        1.86834   0.00000   0.00000   0.00001   0.00001   1.86835
   A29        2.04790  -0.00000   0.00000  -0.00002  -0.00002   2.04788
   A30        1.86775   0.00000   0.00000   0.00004   0.00004   1.86779
   A31        1.87861  -0.00000   0.00000   0.00000   0.00000   1.87861
   A32        2.20886   0.00000   0.00000   0.00001   0.00001   2.20887
   A33        2.00936   0.00000   0.00000   0.00000   0.00000   2.00936
   A34        2.06461  -0.00000   0.00000  -0.00001  -0.00001   2.06460
   A35        2.14145   0.00000   0.00000   0.00002   0.00002   2.14147
   A36        2.11143   0.00001   0.00000   0.00003   0.00003   2.11146
   A37        2.03030  -0.00001   0.00000  -0.00005  -0.00005   2.03026
    D1        0.02140  -0.00000   0.00000  -0.00023  -0.00023   0.02117
    D2       -3.11957  -0.00000   0.00000  -0.00020  -0.00020  -3.11977
    D3       -2.08797  -0.00000   0.00000  -0.00023  -0.00023  -2.08820
    D4        1.05424  -0.00000   0.00000  -0.00020  -0.00020   1.05404
    D5        2.13162  -0.00000   0.00000  -0.00023  -0.00023   2.13139
    D6       -1.00935  -0.00000   0.00000  -0.00020  -0.00020  -1.00955
    D7       -0.02257   0.00000   0.00000   0.00004   0.00004  -0.02253
    D8        3.13905   0.00000   0.00000   0.00004   0.00004   3.13909
    D9        3.11838   0.00000   0.00000   0.00001   0.00001   3.11839
   D10       -0.00319   0.00000   0.00000   0.00001   0.00001  -0.00318
   D11        3.09991   0.00000   0.00000   0.00010   0.00010   3.10002
   D12        1.03595   0.00000   0.00000   0.00012   0.00012   1.03607
   D13       -1.09225   0.00000   0.00000   0.00015   0.00015  -1.09210
   D14       -0.05825  -0.00000   0.00000   0.00011   0.00011  -0.05814
   D15       -2.12221  -0.00000   0.00000   0.00012   0.00012  -2.12209
   D16        2.03278   0.00000   0.00000   0.00015   0.00015   2.03293
   D17        2.80151  -0.00000   0.00000  -0.00005  -0.00005   2.80146
   D18        0.56676   0.00000   0.00000  -0.00001  -0.00001   0.56675
   D19       -1.52933   0.00000   0.00000  -0.00001  -0.00001  -1.52934
   D20       -0.32333  -0.00000   0.00000  -0.00006  -0.00006  -0.32338
   D21       -2.55808   0.00000   0.00000  -0.00002  -0.00002  -2.55809
   D22        1.62901   0.00000   0.00000  -0.00001  -0.00001   1.62900
   D23        0.45923  -0.00000   0.00000  -0.00013  -0.00013   0.45911
   D24        2.58849  -0.00000   0.00000  -0.00016  -0.00016   2.58833
   D25       -1.64019  -0.00001   0.00000  -0.00019  -0.00019  -1.64038
   D26       -0.67868   0.00000   0.00000   0.00009   0.00009  -0.67859
   D27       -2.80441  -0.00000   0.00000   0.00005   0.00005  -2.80437
   D28        1.40191   0.00000   0.00000   0.00008   0.00008   1.40199
   D29        0.60308   0.00000   0.00000  -0.00001  -0.00001   0.60307
   D30        2.82184  -0.00000   0.00000  -0.00005  -0.00005   2.82178
   D31       -1.34972  -0.00000   0.00000  -0.00003  -0.00003  -1.34975
   D32        2.65697   0.00000   0.00000   0.00001   0.00001   2.65698
   D33       -1.40745  -0.00000   0.00000  -0.00004  -0.00004  -1.40749
   D34        0.70417  -0.00000   0.00000  -0.00002  -0.00002   0.70416
   D35       -1.47561   0.00000   0.00000   0.00001   0.00001  -1.47560
   D36        0.74316  -0.00000   0.00000  -0.00003  -0.00003   0.74312
   D37        2.85478   0.00000   0.00000  -0.00001  -0.00001   2.85477
   D38        2.22726   0.00000   0.00000   0.00000   0.00000   2.22727
   D39       -0.94356  -0.00000   0.00000  -0.00009  -0.00009  -0.94365
   D40        0.14056   0.00000   0.00000   0.00004   0.00004   0.14060
   D41       -3.03026  -0.00000   0.00000  -0.00005  -0.00005  -3.03031
   D42       -1.96539  -0.00000   0.00000   0.00000   0.00000  -1.96539
   D43        1.14697  -0.00000   0.00000  -0.00009  -0.00009   1.14688
   D44       -0.01591   0.00000   0.00000   0.00002   0.00002  -0.01589
   D45        3.12464  -0.00000   0.00000  -0.00009  -0.00009   3.12455
   D46       -3.12745   0.00000   0.00000   0.00012   0.00012  -3.12733
   D47        0.01310  -0.00000   0.00000   0.00000   0.00000   0.01311
         Item               Value     Threshold  Converged?
 Maximum Force            0.000021     0.000450     YES
 RMS     Force            0.000004     0.000300     YES
 Maximum Displacement     0.000398     0.001800     YES
 RMS     Displacement     0.000095     0.001200     YES
 Predicted change in Energy=-5.537891D-09
 Optimization completed.
    -- Stationary point found.
                           ----------------------------
                           !   Optimized Parameters   !
                           ! (Angstroms and Degrees)  !
 --------------------------                            --------------------------
 ! Name  Definition              Value          Derivative Info.                !
 --------------------------------------------------------------------------------
 ! R1    R(1,2)                  1.4992         -DE/DX =    0.0                 !
 ! R2    R(1,3)                  1.09           -DE/DX =    0.0                 !
 ! R3    R(1,4)                  1.0944         -DE/DX =    0.0                 !
 ! R4    R(1,5)                  1.0942         -DE/DX =    0.0                 !
 ! R5    R(2,6)                  1.3278         -DE/DX =    0.0                 !
 ! R6    R(2,20)                 1.086          -DE/DX =    0.0                 !
 ! R7    R(6,7)                  1.5163         -DE/DX =    0.0                 !
 ! R8    R(6,12)                 1.5266         -DE/DX =    0.0                 !
 ! R9    R(7,8)                  1.4257         -DE/DX =    0.0                 !
 ! R10   R(7,9)                  1.0921         -DE/DX =    0.0                 !
 ! R11   R(7,10)                 1.0992         -DE/DX =    0.0                 !
 ! R12   R(8,11)                 1.4227         -DE/DX =    0.0                 !
 ! R13   R(11,12)                1.5327         -DE/DX =    0.0                 !
 ! R14   R(11,13)                1.0893         -DE/DX =    0.0                 !
 ! R15   R(11,14)                1.0985         -DE/DX =    0.0                 !
 ! R16   R(12,15)                1.499          -DE/DX =    0.0                 !
 ! R17   R(12,16)                1.0996         -DE/DX =    0.0                 !
 ! R18   R(15,17)                1.3276         -DE/DX =    0.0                 !
 ! R19   R(15,18)                1.0862         -DE/DX =    0.0                 !
 ! R20   R(17,19)                1.083          -DE/DX =    0.0                 !
 ! R21   R(17,21)                1.0826         -DE/DX =    0.0                 !
 ! A1    A(2,1,3)              112.5665         -DE/DX =    0.0                 !
 ! A2    A(2,1,4)              110.9791         -DE/DX =    0.0                 !
 ! A3    A(2,1,5)              110.9358         -DE/DX =    0.0                 !
 ! A4    A(3,1,4)              107.7491         -DE/DX =    0.0                 !
 ! A5    A(3,1,5)              107.8111         -DE/DX =    0.0                 !
 ! A6    A(4,1,5)              106.537          -DE/DX =    0.0                 !
 ! A7    A(1,2,6)              125.7801         -DE/DX =    0.0                 !
 ! A8    A(1,2,20)             115.4684         -DE/DX =    0.0                 !
 ! A9    A(6,2,20)             118.7514         -DE/DX =    0.0                 !
 ! A10   A(2,6,7)              126.5041         -DE/DX =    0.0                 !
 ! A11   A(2,6,12)             127.3532         -DE/DX =    0.0                 !
 ! A12   A(7,6,12)             106.1351         -DE/DX =    0.0                 !
 ! A13   A(6,7,8)              106.1934         -DE/DX =    0.0                 !
 ! A14   A(6,7,9)              113.5387         -DE/DX =    0.0                 !
 ! A15   A(6,7,10)             110.9761         -DE/DX =    0.0                 !
 ! A16   A(8,7,9)              107.7839         -DE/DX =    0.0                 !
 ! A17   A(8,7,10)             110.2361         -DE/DX =    0.0                 !
 ! A18   A(9,7,10)             108.051          -DE/DX =    0.0                 !
 ! A19   A(7,8,11)             107.3427         -DE/DX =    0.0                 !
 ! A20   A(8,11,12)            104.7428         -DE/DX =    0.0                 !
 ! A21   A(8,11,13)            107.8676         -DE/DX =    0.0                 !
 ! A22   A(8,11,14)            110.5028         -DE/DX =    0.0                 !
 ! A23   A(12,11,13)           114.0094         -DE/DX =    0.0                 !
 ! A24   A(12,11,14)           110.665          -DE/DX =    0.0                 !
 ! A25   A(13,11,14)           108.9458         -DE/DX =    0.0                 !
 ! A26   A(6,12,11)            101.1462         -DE/DX =    0.0                 !
 ! A27   A(6,12,15)            115.9304         -DE/DX =    0.0                 !
 ! A28   A(6,12,16)            107.048          -DE/DX =    0.0                 !
 ! A29   A(11,12,15)           117.3361         -DE/DX =    0.0                 !
 ! A30   A(11,12,16)           107.014          -DE/DX =    0.0                 !
 ! A31   A(15,12,16)           107.6361         -DE/DX =    0.0                 !
 ! A32   A(12,15,17)           126.5585         -DE/DX =    0.0                 !
 ! A33   A(12,15,18)           115.128          -DE/DX =    0.0                 !
 ! A34   A(17,15,18)           118.2933         -DE/DX =    0.0                 !
 ! A35   A(15,17,19)           122.6959         -DE/DX =    0.0                 !
 ! A36   A(15,17,21)           120.9762         -DE/DX =    0.0                 !
 ! A37   A(19,17,21)           116.3278         -DE/DX =    0.0                 !
 ! D1    D(3,1,2,6)              1.226          -DE/DX =    0.0                 !
 ! D2    D(3,1,2,20)          -178.7384         -DE/DX =    0.0                 !
 ! D3    D(4,1,2,6)           -119.6321         -DE/DX =    0.0                 !
 ! D4    D(4,1,2,20)            60.4035         -DE/DX =    0.0                 !
 ! D5    D(5,1,2,6)            122.133          -DE/DX =    0.0                 !
 ! D6    D(5,1,2,20)           -57.8314         -DE/DX =    0.0                 !
 ! D7    D(1,2,6,7)             -1.2931         -DE/DX =    0.0                 !
 ! D8    D(1,2,6,12)           179.8541         -DE/DX =    0.0                 !
 ! D9    D(20,2,6,7)           178.6702         -DE/DX =    0.0                 !
 ! D10   D(20,2,6,12)           -0.1826         -DE/DX =    0.0                 !
 ! D11   D(2,6,7,8)            177.6119         -DE/DX =    0.0                 !
 ! D12   D(2,6,7,9)             59.3557         -DE/DX =    0.0                 !
 ! D13   D(2,6,7,10)           -62.5811         -DE/DX =    0.0                 !
 ! D14   D(12,6,7,8)            -3.3373         -DE/DX =    0.0                 !
 ! D15   D(12,6,7,9)          -121.5936         -DE/DX =    0.0                 !
 ! D16   D(12,6,7,10)          116.4696         -DE/DX =    0.0                 !
 ! D17   D(2,6,12,11)          160.5148         -DE/DX =    0.0                 !
 ! D18   D(2,6,12,15)           32.4732         -DE/DX =    0.0                 !
 ! D19   D(2,6,12,16)          -87.6243         -DE/DX =    0.0                 !
 ! D20   D(7,6,12,11)          -18.5253         -DE/DX =    0.0                 !
 ! D21   D(7,6,12,15)         -146.5669         -DE/DX =    0.0                 !
 ! D22   D(7,6,12,16)           93.3357         -DE/DX =    0.0                 !
 ! D23   D(6,7,8,11)            26.3121         -DE/DX =    0.0                 !
 ! D24   D(9,7,8,11)           148.3097         -DE/DX =    0.0                 !
 ! D25   D(10,7,8,11)          -93.9759         -DE/DX =    0.0                 !
 ! D26   D(7,8,11,12)          -38.8856         -DE/DX =    0.0                 !
 ! D27   D(7,8,11,13)         -160.681          -DE/DX =    0.0                 !
 ! D28   D(7,8,11,14)           80.3233         -DE/DX =    0.0                 !
 ! D29   D(8,11,12,6)           34.5538         -DE/DX =    0.0                 !
 ! D30   D(8,11,12,15)         161.6794         -DE/DX =    0.0                 !
 ! D31   D(8,11,12,16)         -77.3332         -DE/DX =    0.0                 !
 ! D32   D(13,11,12,6)         152.2332         -DE/DX =    0.0                 !
 ! D33   D(13,11,12,15)        -80.6412         -DE/DX =    0.0                 !
 ! D34   D(13,11,12,16)         40.3462         -DE/DX =    0.0                 !
 ! D35   D(14,11,12,6)         -84.546          -DE/DX =    0.0                 !
 ! D36   D(14,11,12,15)         42.5797         -DE/DX =    0.0                 !
 ! D37   D(14,11,12,16)        163.5671         -DE/DX =    0.0                 !
 ! D38   D(6,12,15,17)         127.6128         -DE/DX =    0.0                 !
 ! D39   D(6,12,15,18)         -54.0619         -DE/DX =    0.0                 !
 ! D40   D(11,12,15,17)          8.0535         -DE/DX =    0.0                 !
 ! D41   D(11,12,15,18)       -173.6212         -DE/DX =    0.0                 !
 ! D42   D(16,12,15,17)       -112.6087         -DE/DX =    0.0                 !
 ! D43   D(16,12,15,18)         65.7166         -DE/DX =    0.0                 !
 ! D44   D(12,15,17,19)         -0.9114         -DE/DX =    0.0                 !
 ! D45   D(12,15,17,21)        179.0289         -DE/DX =    0.0                 !
 ! D46   D(18,15,17,19)       -179.1895         -DE/DX =    0.0                 !
 ! D47   D(18,15,17,21)          0.7509         -DE/DX =    0.0                 !
 --------------------------------------------------------------------------------
 GradGradGradGradGradGradGradGradGradGradGradGradGradGradGradGradGradGrad

                          Input orientation:                          
 ---------------------------------------------------------------------
 Center     Atomic      Atomic             Coordinates (Angstroms)
 Number     Number       Type             X           Y           Z
 ---------------------------------------------------------------------
      1          6           0       -2.952204   -1.050909   -0.230307
      2          6           0       -1.502688   -1.087500    0.150856
      3          1           0       -3.284436   -0.052938   -0.516403
      4          1           0       -3.583663   -1.388231    0.597471
      5          1           0       -3.152931   -1.723858   -1.069424
      6          6           0       -0.680506   -0.045227    0.177822
      7          6           0       -1.023578    1.384118   -0.194121
      8          8           0        0.154241    2.150880    0.045272
      9          1           0       -1.827683    1.810768    0.409193
     10          1           0       -1.315880    1.456280   -1.251236
     11          6           0        1.265419    1.270918   -0.077660
     12          6           0        0.796924   -0.040659    0.562112
     13          1           0        2.113995    1.731666    0.426516
     14          1           0        1.519387    1.117304   -1.135292
     15          6           0        1.565342   -1.283205    0.226546
     16          1           0        0.846136    0.097367    1.651896
     17          6           0        2.704270   -1.349497   -0.452445
     18          1           0        1.140396   -2.206131    0.610508
     19          1           0        3.196846   -0.473286   -0.855661
     20          1           0       -1.116201   -2.064923    0.424106
     21          1           0        3.192234   -2.299284   -0.630661
 ---------------------------------------------------------------------
                    Distance matrix (angstroms):
                    1          2          3          4          5
     1  C    0.000000
     2  C    1.499240   0.000000
     3  H    1.090034   2.165682   0.000000
     4  H    1.094414   2.149503   1.764443   0.000000
     5  H    1.094198   2.148799   1.764964   1.754057   0.000000
     6  C    2.517653   1.327796   2.694895   3.226156   3.238257
     7  C    3.106487   2.541152   2.698235   3.855719   3.867792
     8  O    4.469608   3.639185   4.122717   5.177080   5.214741
     9  H    3.140494   2.927852   2.540129   3.654109   4.054155
    10  H    3.163202   2.910597   2.587070   4.080662   3.677103
    11  C    4.816900   3.643730   4.758810   5.571398   5.429005
    12  C    3.962890   2.559926   4.221474   4.583311   4.593084
    13  H    5.817260   4.593918   5.763416   6.498176   6.474488
    14  H    5.051264   3.955790   4.982891   5.943172   5.468738
    15  C    4.546526   3.075197   5.058248   5.163416   4.912821
    16  H    4.391880   3.028862   4.667519   4.789774   5.168654
    17  C    5.668703   4.258064   6.127786   6.375102   5.901492
    18  H    4.334845   2.906632   5.048297   4.794357   4.635452
    19  H    6.207699   4.845199   6.503753   6.994571   6.475283
    20  H    2.197132   1.085999   3.103850   2.564437   2.548573
    21  H    6.282742   4.911363   6.856120   6.946302   6.386294
                    6          7          8          9         10
     6  C    0.000000
     7  C    1.516267   0.000000
     8  O    2.353138   1.425654   0.000000
     9  H    2.194143   1.092064   2.043560   0.000000
    10  H    2.168048   1.099154   2.079581   1.773310   0.000000
    11  C    2.363077   2.294752   1.422730   3.177380   2.841609
    12  C    1.526597   2.432305   2.341582   3.215545   3.161170
    13  H    3.320909   3.217195   2.040030   3.942510   3.828150
    14  H    2.813410   2.724640   2.079816   3.750894   2.857812
    15  C    2.564917   3.740866   3.717123   4.595503   4.241469
    16  H    2.126937   2.925635   2.697568   3.410185   3.866411
    17  C    3.681720   4.629928   4.359244   5.591806   4.967098
    18  H    2.858742   4.268501   4.502837   4.998550   4.786715
    19  H    4.035490   4.658279   4.117690   5.662389   4.923860
    20  H    2.080783   3.505234   4.419336   3.940483   3.904550
    21  H    4.553299   5.615255   5.430492   6.570646   5.900209
                   11         12         13         14         15
    11  C    0.000000
    12  C    1.532655   0.000000
    13  H    1.089295   2.212283   0.000000
    14  H    1.098491   2.178075   1.780518   0.000000
    15  C    2.589602   1.498997   3.070905   2.760282   0.000000
    16  H    2.131756   1.099592   2.404154   3.043346   2.110654
    17  C    3.012861   2.525936   3.258000   2.820520   1.327622
    18  H    3.546699   2.193076   4.060541   3.773151   1.086185
    19  H    2.716237   2.820793   2.770985   2.328527   2.118713
    20  H    4.129373   2.788680   4.984803   4.416403   2.800140
    21  H    4.094480   3.501657   4.304507   3.837466   2.100952
                   16         17         18         19         20
    16  H    0.000000
    17  C    3.158216   0.000000
    18  H    2.545031   2.075908   0.000000
    19  H    3.484153   1.083033   3.062905   0.000000
    20  H    3.167607   3.984492   2.268681   4.772157   0.000000
    21  H    4.056868   1.082573   2.399837   1.839814   4.441854
                   21
    21  H    0.000000
 Stoichiometry    C8H12O
 Framework group  C1[X(C8H12O)]
 Deg. of freedom    57
 Full point group                 C1      NOp   1
 Largest Abelian subgroup         C1      NOp   1
 Largest concise Abelian subgroup C1      NOp   1
                         Standard orientation:                         
 ---------------------------------------------------------------------
 Center     Atomic      Atomic             Coordinates (Angstroms)
 Number     Number       Type             X           Y           Z
 ---------------------------------------------------------------------
      1          6           0       -2.952204   -1.050909   -0.230307
      2          6           0       -1.502688   -1.087500    0.150856
      3          1           0       -3.284436   -0.052938   -0.516403
      4          1           0       -3.583663   -1.388231    0.597471
      5          1           0       -3.152931   -1.723858   -1.069424
      6          6           0       -0.680506   -0.045227    0.177822
      7          6           0       -1.023578    1.384118   -0.194121
      8          8           0        0.154241    2.150880    0.045272
      9          1           0       -1.827683    1.810768    0.409193
     10          1           0       -1.315880    1.456280   -1.251236
     11          6           0        1.265419    1.270918   -0.077660
     12          6           0        0.796924   -0.040659    0.562112
     13          1           0        2.113995    1.731666    0.426516
     14          1           0        1.519387    1.117304   -1.135292
     15          6           0        1.565342   -1.283205    0.226546
     16          1           0        0.846136    0.097367    1.651896
     17          6           0        2.704270   -1.349497   -0.452445
     18          1           0        1.140396   -2.206131    0.610508
     19          1           0        3.196846   -0.473286   -0.855661
     20          1           0       -1.116201   -2.064923    0.424106
     21          1           0        3.192234   -2.299284   -0.630661
 ---------------------------------------------------------------------
 Rotational constants (GHZ):           2.1699046           1.3231418           0.8735132
 1\1\GINC-BHC0021\FOpt\RB3LYP\def2TZVP\C8H12O1\DHANAWAY\10-Jun-2022\0\\
 # Opt B3LYP/Def2TZVP freq=noraman pop=none\\int_initalOpt\\0,1\C,-2.95
 2204,-1.050909,-0.230307\C,-1.502688,-1.0875,0.150856\H,-3.284436,-0.0
 52938,-0.516403\H,-3.583663,-1.388231,0.597471\H,-3.152931,-1.723858,-
 1.069424\C,-0.680506,-0.045227,0.177822\C,-1.023578,1.384118,-0.194121
 \O,0.154241,2.15088,0.045272\H,-1.827683,1.810768,0.409193\H,-1.31588,
 1.45628,-1.251236\C,1.265419,1.270918,-0.07766\C,0.796924,-0.040659,0.
 562112\H,2.113995,1.731666,0.426516\H,1.519387,1.117304,-1.135292\C,1.
 565342,-1.283205,0.226546\H,0.846136,0.097367,1.651896\C,2.70427,-1.34
 9497,-0.452445\H,1.140396,-2.206131,0.610508\H,3.196846,-0.473286,-0.8
 55661\H,-1.116201,-2.064923,0.424106\H,3.192234,-2.299284,-0.630661\\V
 ersion=ES64L-G16RevA.03\HF=-387.3914221\RMSD=5.258e-09\RMSF=6.952e-06\
 Dipole=-0.1646598,-0.5476875,-0.0132818\PG=C01 [X(C8H12O1)]\\@


 ARTHROPOD AXIOM: A COMPUTER SYSTEM IS LIKE A SPIDER'S WEB.
 YOU CANNOT PULL ON ONE END WITHOUT MAKING THE OTHER END MOVE.
     -- GREG WETTSTEIN
 Job cpu time:       0 days  0 hours 21 minutes  1.3 seconds.
 Elapsed time:       0 days  0 hours  1 minutes 45.5 seconds.
 File lengths (MBytes):  RWF=     71 Int=      0 D2E=      0 Chk=     32 Scr=      1
 Normal termination of Gaussian 16 at Fri Jun 10 10:42:08 2022.
 Link1:  Proceeding to internal job step number  2.
 --------------------------------------------------------------------
 #N Geom=AllCheck Guess=TCheck SCRF=Check GenChk RB3LYP/def2TZVP Freq
 --------------------------------------------------------------------
 1/10=4,29=7,30=1,38=1,40=1/1,3;
 2/12=2,40=1/2;
 3/5=44,7=101,11=2,14=-4,25=1,30=1,70=2,71=2,74=-5,116=1,140=1/1,2,3;
 4/5=101/1;
 5/5=2,38=6,98=1/2;
 8/6=4,10=90,11=11/1;
 11/6=1,8=1,9=11,15=111,16=1/1,2,10;
 10/6=1/2;
 7/8=1,10=1,25=1/1,2,3,16;
 1/10=4,30=1/3;
 99//99;
 Structure from the checkpoint file:  "checkpoint.chk"
 -------------
 int_initalOpt
 -------------
 Charge =  0 Multiplicity = 1
 Redundant internal coordinates found in file.  (old form).
 C,0,-2.952204,-1.050909,-0.230307
 C,0,-1.502688,-1.0875,0.150856
 H,0,-3.284436,-0.052938,-0.516403
 H,0,-3.583663,-1.388231,0.597471
 H,0,-3.152931,-1.723858,-1.069424
 C,0,-0.680506,-0.045227,0.177822
 C,0,-1.023578,1.384118,-0.194121
 O,0,0.154241,2.15088,0.045272
 H,0,-1.827683,1.810768,0.409193
 H,0,-1.31588,1.45628,-1.251236
 C,0,1.265419,1.270918,-0.07766
 C,0,0.796924,-0.040659,0.562112
 H,0,2.113995,1.731666,0.426516
 H,0,1.519387,1.117304,-1.135292
 C,0,1.565342,-1.283205,0.226546
 H,0,0.846136,0.097367,1.651896
 C,0,2.70427,-1.349497,-0.452445
 H,0,1.140396,-2.206131,0.610508
 H,0,3.196846,-0.473286,-0.855661
 H,0,-1.116201,-2.064923,0.424106
 H,0,3.192234,-2.299284,-0.630661
 Recover connectivity data from disk.

 GradGradGradGradGradGradGradGradGradGradGradGradGradGradGradGradGradGrad
 Berny optimization.
 Initialization pass.
                           ----------------------------
                           !    Initial Parameters    !
                           ! (Angstroms and Degrees)  !
 --------------------------                            --------------------------
 ! Name  Definition              Value          Derivative Info.                !
 --------------------------------------------------------------------------------
 ! R1    R(1,2)                  1.4992         calculate D2E/DX2 analytically  !
 ! R2    R(1,3)                  1.09           calculate D2E/DX2 analytically  !
 ! R3    R(1,4)                  1.0944         calculate D2E/DX2 analytically  !
 ! R4    R(1,5)                  1.0942         calculate D2E/DX2 analytically  !
 ! R5    R(2,6)                  1.3278         calculate D2E/DX2 analytically  !
 ! R6    R(2,20)                 1.086          calculate D2E/DX2 analytically  !
 ! R7    R(6,7)                  1.5163         calculate D2E/DX2 analytically  !
 ! R8    R(6,12)                 1.5266         calculate D2E/DX2 analytically  !
 ! R9    R(7,8)                  1.4257         calculate D2E/DX2 analytically  !
 ! R10   R(7,9)                  1.0921         calculate D2E/DX2 analytically  !
 ! R11   R(7,10)                 1.0992         calculate D2E/DX2 analytically  !
 ! R12   R(8,11)                 1.4227         calculate D2E/DX2 analytically  !
 ! R13   R(11,12)                1.5327         calculate D2E/DX2 analytically  !
 ! R14   R(11,13)                1.0893         calculate D2E/DX2 analytically  !
 ! R15   R(11,14)                1.0985         calculate D2E/DX2 analytically  !
 ! R16   R(12,15)                1.499          calculate D2E/DX2 analytically  !
 ! R17   R(12,16)                1.0996         calculate D2E/DX2 analytically  !
 ! R18   R(15,17)                1.3276         calculate D2E/DX2 analytically  !
 ! R19   R(15,18)                1.0862         calculate D2E/DX2 analytically  !
 ! R20   R(17,19)                1.083          calculate D2E/DX2 analytically  !
 ! R21   R(17,21)                1.0826         calculate D2E/DX2 analytically  !
 ! A1    A(2,1,3)              112.5665         calculate D2E/DX2 analytically  !
 ! A2    A(2,1,4)              110.9791         calculate D2E/DX2 analytically  !
 ! A3    A(2,1,5)              110.9358         calculate D2E/DX2 analytically  !
 ! A4    A(3,1,4)              107.7491         calculate D2E/DX2 analytically  !
 ! A5    A(3,1,5)              107.8111         calculate D2E/DX2 analytically  !
 ! A6    A(4,1,5)              106.537          calculate D2E/DX2 analytically  !
 ! A7    A(1,2,6)              125.7801         calculate D2E/DX2 analytically  !
 ! A8    A(1,2,20)             115.4684         calculate D2E/DX2 analytically  !
 ! A9    A(6,2,20)             118.7514         calculate D2E/DX2 analytically  !
 ! A10   A(2,6,7)              126.5041         calculate D2E/DX2 analytically  !
 ! A11   A(2,6,12)             127.3532         calculate D2E/DX2 analytically  !
 ! A12   A(7,6,12)             106.1351         calculate D2E/DX2 analytically  !
 ! A13   A(6,7,8)              106.1934         calculate D2E/DX2 analytically  !
 ! A14   A(6,7,9)              113.5387         calculate D2E/DX2 analytically  !
 ! A15   A(6,7,10)             110.9761         calculate D2E/DX2 analytically  !
 ! A16   A(8,7,9)              107.7839         calculate D2E/DX2 analytically  !
 ! A17   A(8,7,10)             110.2361         calculate D2E/DX2 analytically  !
 ! A18   A(9,7,10)             108.051          calculate D2E/DX2 analytically  !
 ! A19   A(7,8,11)             107.3427         calculate D2E/DX2 analytically  !
 ! A20   A(8,11,12)            104.7428         calculate D2E/DX2 analytically  !
 ! A21   A(8,11,13)            107.8676         calculate D2E/DX2 analytically  !
 ! A22   A(8,11,14)            110.5028         calculate D2E/DX2 analytically  !
 ! A23   A(12,11,13)           114.0094         calculate D2E/DX2 analytically  !
 ! A24   A(12,11,14)           110.665          calculate D2E/DX2 analytically  !
 ! A25   A(13,11,14)           108.9458         calculate D2E/DX2 analytically  !
 ! A26   A(6,12,11)            101.1462         calculate D2E/DX2 analytically  !
 ! A27   A(6,12,15)            115.9304         calculate D2E/DX2 analytically  !
 ! A28   A(6,12,16)            107.048          calculate D2E/DX2 analytically  !
 ! A29   A(11,12,15)           117.3361         calculate D2E/DX2 analytically  !
 ! A30   A(11,12,16)           107.014          calculate D2E/DX2 analytically  !
 ! A31   A(15,12,16)           107.6361         calculate D2E/DX2 analytically  !
 ! A32   A(12,15,17)           126.5585         calculate D2E/DX2 analytically  !
 ! A33   A(12,15,18)           115.128          calculate D2E/DX2 analytically  !
 ! A34   A(17,15,18)           118.2933         calculate D2E/DX2 analytically  !
 ! A35   A(15,17,19)           122.6959         calculate D2E/DX2 analytically  !
 ! A36   A(15,17,21)           120.9762         calculate D2E/DX2 analytically  !
 ! A37   A(19,17,21)           116.3278         calculate D2E/DX2 analytically  !
 ! D1    D(3,1,2,6)              1.226          calculate D2E/DX2 analytically  !
 ! D2    D(3,1,2,20)          -178.7384         calculate D2E/DX2 analytically  !
 ! D3    D(4,1,2,6)           -119.6321         calculate D2E/DX2 analytically  !
 ! D4    D(4,1,2,20)            60.4035         calculate D2E/DX2 analytically  !
 ! D5    D(5,1,2,6)            122.133          calculate D2E/DX2 analytically  !
 ! D6    D(5,1,2,20)           -57.8314         calculate D2E/DX2 analytically  !
 ! D7    D(1,2,6,7)             -1.2931         calculate D2E/DX2 analytically  !
 ! D8    D(1,2,6,12)           179.8541         calculate D2E/DX2 analytically  !
 ! D9    D(20,2,6,7)           178.6702         calculate D2E/DX2 analytically  !
 ! D10   D(20,2,6,12)           -0.1826         calculate D2E/DX2 analytically  !
 ! D11   D(2,6,7,8)            177.6119         calculate D2E/DX2 analytically  !
 ! D12   D(2,6,7,9)             59.3557         calculate D2E/DX2 analytically  !
 ! D13   D(2,6,7,10)           -62.5811         calculate D2E/DX2 analytically  !
 ! D14   D(12,6,7,8)            -3.3373         calculate D2E/DX2 analytically  !
 ! D15   D(12,6,7,9)          -121.5936         calculate D2E/DX2 analytically  !
 ! D16   D(12,6,7,10)          116.4696         calculate D2E/DX2 analytically  !
 ! D17   D(2,6,12,11)          160.5148         calculate D2E/DX2 analytically  !
 ! D18   D(2,6,12,15)           32.4732         calculate D2E/DX2 analytically  !
 ! D19   D(2,6,12,16)          -87.6243         calculate D2E/DX2 analytically  !
 ! D20   D(7,6,12,11)          -18.5253         calculate D2E/DX2 analytically  !
 ! D21   D(7,6,12,15)         -146.5669         calculate D2E/DX2 analytically  !
 ! D22   D(7,6,12,16)           93.3357         calculate D2E/DX2 analytically  !
 ! D23   D(6,7,8,11)            26.3121         calculate D2E/DX2 analytically  !
 ! D24   D(9,7,8,11)           148.3097         calculate D2E/DX2 analytically  !
 ! D25   D(10,7,8,11)          -93.9759         calculate D2E/DX2 analytically  !
 ! D26   D(7,8,11,12)          -38.8856         calculate D2E/DX2 analytically  !
 ! D27   D(7,8,11,13)         -160.681          calculate D2E/DX2 analytically  !
 ! D28   D(7,8,11,14)           80.3233         calculate D2E/DX2 analytically  !
 ! D29   D(8,11,12,6)           34.5538         calculate D2E/DX2 analytically  !
 ! D30   D(8,11,12,15)         161.6794         calculate D2E/DX2 analytically  !
 ! D31   D(8,11,12,16)         -77.3332         calculate D2E/DX2 analytically  !
 ! D32   D(13,11,12,6)         152.2332         calculate D2E/DX2 analytically  !
 ! D33   D(13,11,12,15)        -80.6412         calculate D2E/DX2 analytically  !
 ! D34   D(13,11,12,16)         40.3462         calculate D2E/DX2 analytically  !
 ! D35   D(14,11,12,6)         -84.546          calculate D2E/DX2 analytically  !
 ! D36   D(14,11,12,15)         42.5797         calculate D2E/DX2 analytically  !
 ! D37   D(14,11,12,16)        163.5671         calculate D2E/DX2 analytically  !
 ! D38   D(6,12,15,17)         127.6128         calculate D2E/DX2 analytically  !
 ! D39   D(6,12,15,18)         -54.0619         calculate D2E/DX2 analytically  !
 ! D40   D(11,12,15,17)          8.0535         calculate D2E/DX2 analytically  !
 ! D41   D(11,12,15,18)       -173.6212         calculate D2E/DX2 analytically  !
 ! D42   D(16,12,15,17)       -112.6087         calculate D2E/DX2 analytically  !
 ! D43   D(16,12,15,18)         65.7166         calculate D2E/DX2 analytically  !
 ! D44   D(12,15,17,19)         -0.9114         calculate D2E/DX2 analytically  !
 ! D45   D(12,15,17,21)        179.0289         calculate D2E/DX2 analytically  !
 ! D46   D(18,15,17,19)       -179.1895         calculate D2E/DX2 analytically  !
 ! D47   D(18,15,17,21)          0.7509         calculate D2E/DX2 analytically  !
 --------------------------------------------------------------------------------
 Trust Radius=3.00D-01 FncErr=1.00D-07 GrdErr=1.00D-07 EigMax=2.50D+02 EigMin=1.00D-04
 Number of steps in this run=      2 maximum allowed number of steps=      2.
 GradGradGradGradGradGradGradGradGradGradGradGradGradGradGradGradGradGrad

                          Input orientation:                          
 ---------------------------------------------------------------------
 Center     Atomic      Atomic             Coordinates (Angstroms)
 Number     Number       Type             X           Y           Z
 ---------------------------------------------------------------------
      1          6           0       -2.952204   -1.050909   -0.230307
      2          6           0       -1.502688   -1.087500    0.150856
      3          1           0       -3.284436   -0.052938   -0.516403
      4          1           0       -3.583663   -1.388231    0.597471
      5          1           0       -3.152931   -1.723858   -1.069424
      6          6           0       -0.680506   -0.045227    0.177822
      7          6           0       -1.023578    1.384118   -0.194121
      8          8           0        0.154241    2.150880    0.045272
      9          1           0       -1.827683    1.810768    0.409193
     10          1           0       -1.315880    1.456280   -1.251236
     11          6           0        1.265419    1.270918   -0.077660
     12          6           0        0.796924   -0.040659    0.562112
     13          1           0        2.113995    1.731666    0.426516
     14          1           0        1.519387    1.117304   -1.135292
     15          6           0        1.565342   -1.283205    0.226546
     16          1           0        0.846136    0.097367    1.651896
     17          6           0        2.704270   -1.349497   -0.452445
     18          1           0        1.140396   -2.206131    0.610508
     19          1           0        3.196846   -0.473286   -0.855661
     20          1           0       -1.116201   -2.064923    0.424106
     21          1           0        3.192234   -2.299284   -0.630661
 ---------------------------------------------------------------------
                    Distance matrix (angstroms):
                    1          2          3          4          5
     1  C    0.000000
     2  C    1.499240   0.000000
     3  H    1.090034   2.165682   0.000000
     4  H    1.094414   2.149503   1.764443   0.000000
     5  H    1.094198   2.148799   1.764964   1.754057   0.000000
     6  C    2.517653   1.327796   2.694895   3.226156   3.238257
     7  C    3.106487   2.541152   2.698235   3.855719   3.867792
     8  O    4.469608   3.639185   4.122717   5.177080   5.214741
     9  H    3.140494   2.927852   2.540129   3.654109   4.054155
    10  H    3.163202   2.910597   2.587070   4.080662   3.677103
    11  C    4.816900   3.643730   4.758810   5.571398   5.429005
    12  C    3.962890   2.559926   4.221474   4.583311   4.593084
    13  H    5.817260   4.593918   5.763416   6.498176   6.474488
    14  H    5.051264   3.955790   4.982891   5.943172   5.468738
    15  C    4.546526   3.075197   5.058248   5.163416   4.912821
    16  H    4.391880   3.028862   4.667519   4.789774   5.168654
    17  C    5.668703   4.258064   6.127786   6.375102   5.901492
    18  H    4.334845   2.906632   5.048297   4.794357   4.635452
    19  H    6.207699   4.845199   6.503753   6.994571   6.475283
    20  H    2.197132   1.085999   3.103850   2.564437   2.548573
    21  H    6.282742   4.911363   6.856120   6.946302   6.386294
                    6          7          8          9         10
     6  C    0.000000
     7  C    1.516267   0.000000
     8  O    2.353138   1.425654   0.000000
     9  H    2.194143   1.092064   2.043560   0.000000
    10  H    2.168048   1.099154   2.079581   1.773310   0.000000
    11  C    2.363077   2.294752   1.422730   3.177380   2.841609
    12  C    1.526597   2.432305   2.341582   3.215545   3.161170
    13  H    3.320909   3.217195   2.040030   3.942510   3.828150
    14  H    2.813410   2.724640   2.079816   3.750894   2.857812
    15  C    2.564917   3.740866   3.717123   4.595503   4.241469
    16  H    2.126937   2.925635   2.697568   3.410185   3.866411
    17  C    3.681720   4.629928   4.359244   5.591806   4.967098
    18  H    2.858742   4.268501   4.502837   4.998550   4.786715
    19  H    4.035490   4.658279   4.117690   5.662389   4.923860
    20  H    2.080783   3.505234   4.419336   3.940483   3.904550
    21  H    4.553299   5.615255   5.430492   6.570646   5.900209
                   11         12         13         14         15
    11  C    0.000000
    12  C    1.532655   0.000000
    13  H    1.089295   2.212283   0.000000
    14  H    1.098491   2.178075   1.780518   0.000000
    15  C    2.589602   1.498997   3.070905   2.760282   0.000000
    16  H    2.131756   1.099592   2.404154   3.043346   2.110654
    17  C    3.012861   2.525936   3.258000   2.820520   1.327622
    18  H    3.546699   2.193076   4.060541   3.773151   1.086185
    19  H    2.716237   2.820793   2.770985   2.328527   2.118713
    20  H    4.129373   2.788680   4.984803   4.416403   2.800140
    21  H    4.094480   3.501657   4.304507   3.837466   2.100952
                   16         17         18         19         20
    16  H    0.000000
    17  C    3.158216   0.000000
    18  H    2.545031   2.075908   0.000000
    19  H    3.484153   1.083033   3.062905   0.000000
    20  H    3.167607   3.984492   2.268681   4.772157   0.000000
    21  H    4.056868   1.082573   2.399837   1.839814   4.441854
                   21
    21  H    0.000000
 Stoichiometry    C8H12O
 Framework group  C1[X(C8H12O)]
 Deg. of freedom    57
 Full point group                 C1      NOp   1
 Largest Abelian subgroup         C1      NOp   1
 Largest concise Abelian subgroup C1      NOp   1
                         Standard orientation:                         
 ---------------------------------------------------------------------
 Center     Atomic      Atomic             Coordinates (Angstroms)
 Number     Number       Type             X           Y           Z
 ---------------------------------------------------------------------
      1          6           0       -2.952204   -1.050909   -0.230307
      2          6           0       -1.502688   -1.087500    0.150856
      3          1           0       -3.284436   -0.052938   -0.516403
      4          1           0       -3.583663   -1.388231    0.597471
      5          1           0       -3.152931   -1.723858   -1.069424
      6          6           0       -0.680506   -0.045227    0.177822
      7          6           0       -1.023578    1.384118   -0.194121
      8          8           0        0.154241    2.150880    0.045272
      9          1           0       -1.827683    1.810768    0.409193
     10          1           0       -1.315880    1.456280   -1.251236
     11          6           0        1.265419    1.270918   -0.077660
     12          6           0        0.796924   -0.040659    0.562112
     13          1           0        2.113995    1.731666    0.426516
     14          1           0        1.519387    1.117304   -1.135292
     15          6           0        1.565342   -1.283205    0.226546
     16          1           0        0.846136    0.097367    1.651896
     17          6           0        2.704270   -1.349497   -0.452445
     18          1           0        1.140396   -2.206131    0.610508
     19          1           0        3.196846   -0.473286   -0.855661
     20          1           0       -1.116201   -2.064923    0.424106
     21          1           0        3.192234   -2.299284   -0.630661
 ---------------------------------------------------------------------
 Rotational constants (GHZ):           2.1699046           1.3231418           0.8735132
 Standard basis: def2TZVP (5D, 7F)
 There are   396 symmetry adapted cartesian basis functions of A   symmetry.
 There are   351 symmetry adapted basis functions of A   symmetry.
   351 basis functions,   555 primitive gaussians,   396 cartesian basis functions
    34 alpha electrons       34 beta electrons
       nuclear repulsion energy       444.5741771336 Hartrees.
 NAtoms=   21 NActive=   21 NUniq=   21 SFac= 1.00D+00 NAtFMM=   60 NAOKFM=F Big=F
 Integral buffers will be    131072 words long.
 Raffenetti 2 integral format.
 Two-electron integral symmetry is turned on.
 One-electron integrals computed using PRISM.
   1 Symmetry operations used in ECPInt.
 ECPInt:  NShTT=   10878 NPrTT=   32112 LenC2=   10560 LenP2D=   24705.
 LDataN:  DoStor=T MaxTD1= 6 Len=  172
 NBasis=   351 RedAO= T EigKep=  6.87D-05  NBF=   351
 NBsUse=   351 1.00D-06 EigRej= -1.00D+00 NBFU=   351
 Initial guess from the checkpoint file:  "checkpoint.chk"
 B after Tr=    -0.000000    0.000000    0.000000
         Rot=    1.000000    0.000000   -0.000000    0.000000 Ang=   0.00 deg.
 Requested convergence on RMS density matrix=1.00D-08 within 128 cycles.
 Requested convergence on MAX density matrix=1.00D-06.
 Requested convergence on             energy=1.00D-06.
 No special actions if energy rises.
 SCF Done:  E(RB3LYP) =  -387.391422067     A.U. after    1 cycles
            NFock=  1  Conv=0.16D-08     -V/T= 2.0053
 DoSCS=F DFT=T ScalE2(SS,OS)=  1.000000  1.000000
 Range of M.O.s used for correlation:     1   351
 NBasis=   351 NAE=    34 NBE=    34 NFC=     0 NFV=     0
 NROrb=    351 NOA=    34 NOB=    34 NVA=   317 NVB=   317

 **** Warning!!: The largest alpha MO coefficient is  0.22062412D+02

   1 Symmetry operations used in ECPInt.
 ECPInt:  NShTT=   10878 NPrTT=   32112 LenC2=   10560 LenP2D=   24705.
 LDataN:  DoStor=T MaxTD1= 7 Len=  274
 Symmetrizing basis deriv contribution to polar:
 IMax=3 JMax=2 DiffMx= 0.00D+00
 G2DrvN: will do    22 centers at a time, making    1 passes.
 Calling FoFCou, ICntrl=  3107 FMM=F I1Cent=   0 AccDes= 0.00D+00.
 End of G2Drv F.D. properties file   721 does not exist.
 End of G2Drv F.D. properties file   722 does not exist.
 End of G2Drv F.D. properties file   788 does not exist.
          IDoAtm=111111111111111111111
          Differentiating once with respect to electric field.
                with respect to dipole field.
          Differentiating once with respect to nuclear coordinates.
 CalDSu exits because no D1Ps are significant.
          There are    66 degrees of freedom in the 1st order CPHF.  IDoFFX=6 NUNeed=     3.
     63 vectors produced by pass  0 Test12= 1.63D-14 1.52D-09 XBig12= 9.40D+01 4.65D+00.
 AX will form    63 AO Fock derivatives at one time.
     63 vectors produced by pass  1 Test12= 1.63D-14 1.52D-09 XBig12= 9.97D+00 7.29D-01.
     63 vectors produced by pass  2 Test12= 1.63D-14 1.52D-09 XBig12= 1.36D-01 4.52D-02.
     63 vectors produced by pass  3 Test12= 1.63D-14 1.52D-09 XBig12= 4.80D-04 2.90D-03.
     63 vectors produced by pass  4 Test12= 1.63D-14 1.52D-09 XBig12= 9.79D-07 1.14D-04.
     50 vectors produced by pass  5 Test12= 1.63D-14 1.52D-09 XBig12= 1.37D-09 3.42D-06.
      7 vectors produced by pass  6 Test12= 1.63D-14 1.52D-09 XBig12= 1.77D-12 1.55D-07.
      3 vectors produced by pass  7 Test12= 1.63D-14 1.52D-09 XBig12= 2.00D-15 4.95D-09.
      3 vectors produced by pass  8 Test12= 1.63D-14 1.52D-09 XBig12= 4.23D-16 2.87D-09.
      2 vectors produced by pass  9 Test12= 1.63D-14 1.52D-09 XBig12= 3.24D-16 1.88D-09.
 InvSVY:  IOpt=1 It=  1 EMax= 1.07D-14
 Solved reduced A of dimension   380 with    66 vectors.
 Isotropic polarizability for W=    0.000000       97.37 Bohr**3.
 End of Minotr F.D. properties file   721 does not exist.
 End of Minotr F.D. properties file   722 does not exist.
 End of Minotr F.D. properties file   788 does not exist.
   1 Symmetry operations used in ECPInt.
 ECPInt:  NShTT=   10878 NPrTT=   32112 LenC2=   10560 LenP2D=   24705.
 LDataN:  DoStor=T MaxTD1= 8 Len=  415
 Calling FoFJK, ICntrl=    100127 FMM=F ISym2X=0 I1Cent= 0 IOpClX= 0 NMat=1 NMatS=1 NMatT=0.
 Full mass-weighted force constant matrix:
 Low frequencies ---   -3.3047   -0.0006   -0.0001    0.0003    5.3739    5.9662
 Low frequencies ---   54.0601   78.1573  118.1150
 Diagonal vibrational polarizability:
        5.4932703       3.5377676       9.6135507
 Harmonic frequencies (cm**-1), IR intensities (KM/Mole), Raman scattering
 activities (A**4/AMU), depolarization ratios for plane and unpolarized
 incident light, reduced masses (AMU), force constants (mDyne/A),
 and normal coordinates:
                      1                      2                      3
                      A                      A                      A
 Frequencies --     54.0590                78.1562               118.1142
 Red. masses --      2.3757                 2.5013                 1.0270
 Frc consts  --      0.0041                 0.0090                 0.0084
 IR Inten    --      0.1955                 0.1965                 0.2346
  Atom  AN      X      Y      Z        X      Y      Z        X      Y      Z
     1   6     0.06  -0.04  -0.10    -0.06   0.05   0.04     0.00   0.01  -0.01
     2   6     0.06  -0.02  -0.09    -0.03  -0.00  -0.06     0.00  -0.01  -0.02
     3   1     0.03  -0.03  -0.03    -0.06   0.08   0.13     0.15  -0.10  -0.55
     4   1     0.07  -0.11  -0.13    -0.00   0.01   0.07    -0.04   0.55   0.18
     5   1     0.09   0.01  -0.14    -0.13   0.11   0.01    -0.11  -0.42   0.36
     6   6     0.01   0.02   0.05    -0.02  -0.01  -0.01     0.00  -0.00  -0.00
     7   6    -0.05   0.04   0.19    -0.05   0.02   0.13    -0.01   0.00   0.03
     8   8     0.01   0.02  -0.04     0.01  -0.01  -0.02    -0.00  -0.00   0.01
     9   1     0.09   0.02   0.39     0.07   0.00   0.30     0.01  -0.01   0.06
    10   1    -0.29   0.10   0.26    -0.23   0.10   0.19    -0.04   0.02   0.04
    11   6    -0.02  -0.01  -0.12    -0.02  -0.04  -0.12    -0.00  -0.00   0.00
    12   6     0.01   0.05   0.01    -0.01  -0.03  -0.09     0.00  -0.00   0.00
    13   1     0.05  -0.00  -0.24     0.03  -0.06  -0.19     0.00  -0.00  -0.00
    14   1    -0.14  -0.08  -0.14    -0.11  -0.06  -0.14    -0.01  -0.00  -0.00
    15   6     0.00   0.01   0.13    -0.00  -0.03  -0.09     0.00  -0.00  -0.00
    16   1     0.04   0.16  -0.00     0.04  -0.01  -0.09     0.00  -0.00   0.00
    17   6    -0.09  -0.08  -0.02     0.17   0.04   0.19     0.00   0.01  -0.01
    18   1     0.09   0.07   0.37    -0.13  -0.07  -0.33     0.01  -0.00  -0.01
    19   1    -0.18  -0.14  -0.26     0.30   0.09   0.45    -0.00   0.01  -0.00
    20   1     0.11  -0.03  -0.21    -0.02  -0.03  -0.17    -0.00  -0.01  -0.01
    21   1    -0.09  -0.10   0.08     0.19   0.05   0.18     0.01   0.01  -0.01
                      4                      5                      6
[...]
 ,-0.04732852,0.02363201,-0.01603761,-0.00127810,-0.02037734,-0.0013741
 0,0.00310223,-0.01321210,-0.00076265,0.05480920,0.00009083,0.00076105,
 -0.00032513,-0.00175847,-0.00028743,0.00130031,0.00045826,-0.00030653,
 -0.00004108,0.00021145,-0.00014573,0.00004755,0.00012070,-0.00025233,-
 0.00001230,-0.00108439,0.00420433,-0.00497682,-0.04794196,0.01924567,-
 0.27290340,-0.01165858,-0.00733430,0.00199279,-0.00262552,0.00184891,-
 0.01935744,0.06363021,-0.01805694,0.29486698,0.00005076,-0.00152861,-0
 .00174660,-0.00607467,0.00461960,-0.00215673,-0.00024289,-0.00000405,-
 0.00002371,0.00014835,0.00000775,0.00007579,-0.00061824,-0.00002254,-0
 .00011085,-0.02157683,-0.02677598,0.01484945,-0.06111414,0.00765507,0.
 00240495,-0.14526049,0.03306445,0.00759927,-0.00195664,-0.00167983,-0.
 00268228,0.00312915,0.00191944,0.00110099,0.57275087,-0.00022819,0.000
 95835,0.00057949,0.00194625,-0.00218189,0.00112162,0.00049444,-0.00023
 803,0.00022141,0.00018374,-0.00014847,0.00004110,0.00047402,-0.0001215
 0,0.00018521,-0.02964934,-0.00892764,-0.00176092,-0.00369430,0.0130045
 8,0.00367489,0.07705036,-0.13313465,-0.01776151,-0.00468629,-0.0034486
 6,0.00058155,-0.00303579,-0.00163356,-0.00103004,0.08546838,0.43606762
 ,-0.00030729,-0.00059535,-0.00048159,-0.00174241,0.00067112,-0.0005849
 4,-0.00001089,0.00001327,0.00002530,-0.00007868,0.,0.00000022,-0.00031
 113,-0.00009660,-0.00008804,0.00021122,-0.00602102,0.00650848,-0.00891
 985,0.00457821,-0.00096065,0.01188411,-0.01891305,-0.06634971,0.001154
 63,0.00090519,0.00014214,-0.00324090,-0.00116788,0.00020801,0.02885150
 ,0.05566032,0.56589640,0.00339789,-0.00104999,-0.00263718,-0.02107930,
 -0.00508536,-0.00668874,-0.00001353,0.00016925,0.00001250,0.00026236,-
 0.00004027,0.00015672,-0.00108582,-0.00015034,-0.00005580,-0.14532070,
 0.00299510,-0.02393581,-0.01359591,0.02079061,-0.00819384,-0.01018045,
 0.02450489,-0.01054808,-0.00047262,0.00116362,-0.00076489,-0.00091983,
 -0.00055747,0.00037496,-0.08677115,-0.03361777,0.01785217,0.43310259,-
 0.00087086,-0.00284533,0.00115560,-0.02386061,0.00688210,-0.00777044,-
 0.00003057,0.00015107,-0.00006954,-0.00073127,-0.00009409,-0.00020548,
 -0.00053838,-0.00004445,-0.00018593,-0.00328902,-0.08290116,0.00446168
 ,0.02397630,-0.00673424,0.01019916,0.01710741,-0.04342046,0.01354490,-
 0.00041671,-0.00215825,0.00034364,0.00041778,-0.00276404,0.00043171,-0
 .02548877,-0.12401685,0.02959186,-0.04719481,0.50763509,-0.00219588,0.
 00231143,0.01242307,-0.00187303,-0.00228790,0.00192135,-0.00001178,0.0
 0000126,-0.00013693,-0.00266436,-0.00014122,-0.00083473,0.00230156,0.0
 0025390,0.00029002,-0.02490226,0.00384374,-0.07368788,-0.01024346,0.00
 489814,0.00468207,-0.00046231,-0.00317821,0.00569177,0.00041063,0.0001
 7238,-0.00100456,0.00064423,-0.00010923,-0.00055460,0.01573257,0.03612
 755,-0.10149744,-0.00337178,-0.00210475,0.52041812,-0.00003940,-0.0000
 3762,-0.00007336,-0.00003964,-0.00014089,0.00006782,0.00008046,-0.0000
 3875,0.00003737,-0.00002956,-0.00002262,0.00001473,-0.00003997,-0.0000
 4450,-0.00000794,-0.00105892,0.00041298,0.00008266,-0.00155076,0.00388
 278,-0.00046583,-0.03016439,-0.00675858,-0.00900819,-0.00084399,-0.000
 48168,-0.00030618,-0.00079494,-0.00040312,-0.00035568,-0.19660211,-0.0
 8625889,-0.09315940,-0.00272734,-0.00296621,-0.00250871,0.22668509,0.0
 0005045,-0.00048110,-0.00034466,-0.00126810,0.00080697,-0.00028562,-0.
 00005447,0.00006334,-0.00001909,-0.00004737,0.00002277,0.00000728,-0.0
 0020732,0.00000634,-0.00006004,-0.00080758,-0.00483704,0.00244794,0.00
 264549,-0.00331734,0.00048961,0.02467617,0.00953700,0.01008544,0.00068
 345,0.00049931,0.00010591,0.00040965,0.00041867,0.00014831,-0.09518289
 ,-0.10180164,-0.05770864,-0.01994304,-0.00777573,-0.01362514,0.0916035
 5,0.10549883,0.00007249,0.00016119,0.00003349,0.00080713,-0.00016756,0
 .00039479,-0.00001521,0.00000547,-0.00001183,0.00002450,0.00002654,0.0
 0000499,0.00005773,0.00003608,0.00001104,0.00147835,0.00212692,-0.0002
 9457,0.00242607,0.00094181,0.00050261,0.00230139,0.00327860,0.00435080
 ,0.00019127,-0.00004104,0.00013143,0.00047732,-0.00002189,-0.00001259,
 -0.09967862,-0.05743574,-0.11448985,0.01181847,0.00634490,0.00643873,0
 .10310647,0.05950246,0.11598577,0.00001894,0.00002771,-0.00002228,0.00
 003969,-0.00026965,-0.00001586,0.00001886,0.00000207,0.00002501,0.0000
 0412,0.00000039,0.00000058,-0.00001067,-0.00003257,0.00000161,0.000584
 24,0.00012487,0.00007079,0.00340389,0.00198546,0.00280517,-0.01809354,
 0.01505753,0.02803805,-0.00064236,-0.00029819,-0.00054810,0.00000996,-
 0.00007389,-0.00090061,-0.06088556,-0.00134544,0.03897649,-0.00059914,
 -0.00097199,0.00999156,0.00692662,-0.00311525,-0.02319254,0.06991529,0
 .00000199,-0.00005704,0.00005906,-0.00039036,0.00013655,-0.00039825,-0
 .00004559,0.00001192,-0.00002055,-0.00001869,0.00000278,-0.00000515,-0
 .00002313,0.00000369,0.00000005,0.00192742,0.00040442,0.00062000,-0.00
 247788,-0.00148043,-0.00099394,0.01772164,-0.00817880,-0.02231201,0.00
 054110,0.00035317,0.00015254,0.00047492,0.00037572,0.00058393,-0.00104
 347,-0.05193518,-0.02695165,-0.00526534,0.00262055,0.02783812,0.001677
 99,0.00012749,-0.01418211,-0.01188922,0.06100229,0.00005053,0.00004677
 ,-0.00003580,0.00022737,0.00008182,0.00026656,-0.00003334,-0.00000612,
 -0.00002013,0.00003964,0.00000474,-0.00000211,0.00005344,0.00003028,0.
 00002235,-0.00061332,-0.00001864,0.00021131,-0.00023129,-0.00089733,0.
 00087787,0.00812397,-0.00667895,0.00516132,0.00034051,0.00007579,-0.00
 002151,0.00115539,0.00051362,-0.00023905,0.04033358,-0.02625603,-0.276
 58088,0.00171620,0.00022015,-0.01497525,0.00228015,-0.00121389,-0.0143
 5010,-0.05534337,0.03306963,0.29849151,0.00034782,0.00028573,-0.000859
 75,0.00088701,0.00060255,0.00005289,-0.00007664,-0.00006858,0.00003604
 ,0.00026683,0.00006744,0.00006156,-0.00004717,-0.00004707,0.00000188,-
 0.02277301,0.02706620,0.00757598,-0.00432327,-0.00083922,-0.00150144,0
 .00203055,-0.00561449,0.00278604,0.00000371,0.00056013,0.00002579,0.00
 006958,0.00050302,0.00014262,0.00814964,-0.00322094,-0.00829526,-0.109
 64997,0.04638768,0.02143579,-0.00032483,-0.00100758,0.00039284,-0.0000
 8759,-0.00034195,0.00078931,0.65572138,-0.00000896,-0.00134451,-0.0000
 4700,-0.00225330,-0.00025515,-0.00057570,0.00020004,0.00004612,0.00004
 650,-0.00041607,0.00011048,-0.00000402,-0.00047072,0.00004803,-0.00022
 358,0.01147524,0.00560419,0.00346401,-0.00404933,-0.00235215,-0.001304
 12,0.00214914,-0.00428721,0.00159434,0.00008795,0.00019681,-0.00006617
 ,0.00006339,0.00069877,-0.00010587,0.01349743,-0.02285732,-0.00578847,
 0.04285097,-0.17698609,-0.01753149,-0.00028631,0.00021797,-0.00012005,
 0.00060302,0.00166002,-0.00135084,0.00143419,0.56254218,0.00002749,0.0
 0019252,-0.00032281,-0.00035660,-0.00013192,0.00095058,-0.00003846,0.0
 0002661,-0.00002370,0.00004832,-0.00005970,0.00001419,-0.00008007,-0.0
 0005674,-0.00002554,-0.00095472,0.00700046,0.00092146,-0.00114355,0.00
 114945,-0.00034765,-0.00244321,0.00498487,-0.00085374,-0.00018047,0.00
 044416,-0.00020288,-0.00018173,0.00028019,-0.00012322,-0.00888236,0.00
 638166,0.00519591,0.02164741,-0.01914777,-0.08061266,0.00018827,0.0007
 0158,-0.00004269,-0.00000994,0.00026945,0.00025938,-0.30624713,-0.0517
 7995,0.34673665,-0.00106945,-0.00014978,0.00281763,0.00006971,0.001797
 68,-0.00024892,-0.00005226,0.00005252,-0.00008981,-0.00089669,0.000024
 76,-0.00022699,0.00032027,0.00015908,-0.00004792,-0.00977426,-0.006220
 00,-0.03237697,-0.00109427,-0.00066732,0.00089182,0.00091470,0.0012200
 2,-0.00074455,-0.00000332,0.00030783,-0.00029790,0.00004063,-0.0001920
 8,0.00008541,-0.00068482,-0.00037713,0.01451075,-0.03836963,-0.0008864
 8,-0.01363361,0.00017525,0.00079410,0.00017764,-0.00022002,-0.00230545
 ,0.00170753,-0.00160617,0.00455881,0.01890621,0.05222506,-0.00015251,0
 .00001066,0.00042053,-0.00041250,0.00088551,0.00008164,0.00002972,-0.0
 0001267,0.00000455,-0.00011736,-0.00002601,-0.00002645,0.00009377,0.00
 001768,0.00001715,-0.00342688,0.00020981,-0.00288294,0.00033585,-0.000
 10097,-0.00025458,-0.00085200,0.00139869,-0.00197123,0.00004715,-0.000
 03055,0.00004992,-0.00005591,0.00010480,-0.00007241,-0.00117410,-0.000
 25839,0.03067830,0.00102420,-0.04975502,-0.03271223,0.00021402,0.00143
 641,-0.00050074,-0.00077756,-0.00437410,0.00248376,0.00296240,-0.00495
 337,-0.02932078,0.00093900,0.05760273,-0.00054735,-0.00021097,0.000457
 66,0.00064800,0.00148930,0.00113309,0.00001224,0.00001379,-0.00000670,
 -0.00009542,0.00004069,-0.00011782,0.00009068,0.00004551,-0.00001616,-
 0.00639746,-0.00187087,-0.00758133,-0.00080250,-0.00019657,-0.00049921
 ,-0.00053231,-0.00023351,0.00215164,-0.00011186,0.00008470,-0.00012972
 ,0.00005525,0.00004746,-0.00003291,0.00185170,-0.00019509,-0.01695333,
 -0.00989427,-0.02750124,-0.28014729,0.00015597,-0.00008439,0.00127880,
 0.00092749,0.00246121,0.00006507,0.00376143,-0.00434798,-0.00869805,0.
 01138183,0.03227735,0.30819432,-0.00002180,-0.00009412,-0.00006752,-0.
 00026671,-0.00006179,-0.00010570,-0.00001814,0.00001836,0.00000034,-0.
 00008031,0.00000480,0.00000867,-0.00010224,-0.00001707,-0.00004080,0.0
 0243428,0.00084979,0.00058686,-0.00036244,-0.00009946,0.00022741,-0.00
 037365,-0.00016435,0.00033575,-0.00008905,0.00009345,-0.00006914,-0.00
 004178,0.00007477,-0.00005751,-0.00024185,-0.00111051,-0.00119084,-0.0
 1394439,0.00729884,0.01240513,0.00012937,0.00021117,-0.00043887,0.0000
 8985,0.00086403,0.00062142,-0.41855031,0.01566133,0.21968552,-0.000179
 55,0.00062390,-0.00102699,0.65065830,0.00008554,0.00070757,0.00003055,
 0.00002950,-0.00036785,0.00046583,-0.00014587,-0.00001561,-0.00004812,
 0.00014737,-0.00005655,0.00000869,0.00018722,-0.00001380,0.00007669,-0
 .00121783,-0.00409285,-0.00203810,0.00097951,0.00047451,0.00035470,-0.
 00065729,-0.00001494,0.00042865,0.00002164,-0.00014185,0.00000712,0.00
 006440,-0.00025400,0.00005446,0.00211733,0.00098867,-0.00153390,0.0274
 1763,0.00200904,-0.01420943,-0.00018561,-0.00010921,-0.00022691,0.0004
 3860,-0.00030395,0.00036315,0.02061144,-0.11328063,-0.00452407,0.00167
 557,-0.00263113,-0.00116857,-0.03694660,0.63285428,0.00010636,0.000018
 60,-0.00000943,0.00011852,0.00040099,0.00032067,0.00001156,-0.00000323
 ,-0.00000434,0.00003386,0.00000668,0.00001513,0.00007502,0.00001381,-0
 .00000053,-0.00279408,-0.00080481,0.00020690,0.00041659,0.00007989,-0.
 00029581,0.00015771,0.00042330,0.00006628,0.00005492,-0.00009407,0.000
 10673,0.00006010,-0.00008138,0.00006353,-0.00033427,0.00017958,-0.0005
 4823,0.01089854,-0.00452421,0.00040699,0.00011611,-0.00006609,0.000596
 34,-0.00054343,-0.00013289,0.00028011,0.21888970,-0.00105517,-0.183255
 91,-0.00032885,0.00036641,0.00105026,-0.32319244,-0.04184716,0.3074687
 9,-0.00010016,-0.00026041,0.00008483,-0.00054674,0.00096568,-0.0001039
 1,0.00009418,-0.00002061,0.00002446,-0.00000863,0.00001143,-0.00001751
 ,-0.00000183,0.00001578,0.00001026,0.00071847,-0.00110963,-0.00031888,
 0.00056361,0.00027001,0.00011499,-0.00061459,0.00115748,-0.00050820,-0
 .00002436,-0.00007857,0.00001227,-0.00002978,-0.00009090,-0.00001273,-
 0.00151177,0.00153685,0.00203977,0.00795067,0.01396161,-0.00583226,0.0
 0008789,0.00029378,-0.00007066,-0.00008218,-0.00021206,-0.00017422,-0.
 09058148,-0.08563655,0.04322297,0.00049812,-0.00039586,0.00020837,-0.0
 0975392,-0.02568904,0.01335277,0.09657907,0.00010940,0.00065775,-0.000
 00717,-0.00006958,-0.00031383,0.00019434,-0.00021997,0.00002466,-0.000
 05307,0.00006025,-0.00002319,0.00001615,0.00008071,-0.00003542,0.00002
 555,-0.00170104,0.00018102,-0.00030030,-0.00105454,-0.00053762,-0.0002
 6885,0.00151634,-0.00230813,0.00093234,0.00013090,0.00007398,-0.000004
 25,0.00009093,0.00012783,0.00007514,0.00328314,0.00074850,-0.00359237,
 -0.00980840,-0.02197194,0.01091404,-0.00019663,-0.00027664,0.00008860,
 -0.00004931,0.00014892,0.00019833,-0.08908731,-0.25073717,0.08242338,-
 0.00007850,0.00050852,-0.00054769,0.00162533,0.00311636,-0.00039441,0.
 09424449,0.26663853,-0.00004000,-0.00020037,-0.00001296,0.00014424,0.0
 0035690,-0.00024620,0.00006062,-0.00001918,0.00002585,0.00000667,0.000
 01702,-0.00000530,-0.00005097,0.00001171,-0.00001437,0.00060768,0.0000
 1674,0.00017531,-0.00019609,-0.00025932,0.00007396,0.00047403,-0.00064
 197,0.00034060,0.00003802,-0.00001039,-0.00000125,0.00001061,0.0000010
 3,0.00001146,0.00166445,0.00022420,0.00040051,-0.00286179,-0.00686590,
 0.00492186,-0.00011591,0.00025790,-0.00020663,-0.00007742,-0.00028033,
 0.00015248,0.04358709,0.08000967,-0.07847345,-0.00059892,0.00098639,0.
 00043118,0.00935324,0.01605442,-0.00106405,-0.05514591,-0.08912026,0.0
 7123286,0.00002827,0.00007762,-0.00003540,-0.00004469,-0.00013212,-0.0
 0002782,-0.00003883,0.00001091,-0.00000886,0.00001647,-0.00000200,-0.0
 0000149,-0.00000376,-0.00000689,0.00000392,-0.00010538,0.00043280,0.00
 011771,-0.00051890,-0.00022885,-0.00000522,0.00074033,-0.00016543,-0.0
 0050987,0.00005043,0.00009262,-0.00003563,0.00001113,0.00007740,0.0000
 2291,-0.00081643,0.00060826,0.00130229,-0.00071803,-0.00137035,-0.0040
 0849,0.00010057,0.00013245,-0.00000857,-0.00039782,0.00076749,-0.00076
 605,-0.00800037,-0.02455490,0.01148439,0.00053312,-0.00039013,-0.00027
 082,-0.10591641,-0.09680993,0.05415517,-0.00050744,0.00140124,0.007402
 81,0.10771384,0.00000412,-0.00002212,0.00000285,0.00002706,-0.00000875
 ,-0.00002723,0.00000172,0.00001263,0.00000304,-0.00000854,0.00000106,-
 0.00000122,-0.00001043,-0.00000664,-0.00000311,-0.00003279,0.00009732,
 0.00010090,0.00004965,0.00001032,-0.00004170,0.00008502,0.00028439,-0.
 00026691,0.00001999,0.00000971,0.00000730,-0.00001686,0.00001445,-0.00
 002232,0.00069326,-0.00071029,0.00011968,-0.00018761,0.00021632,-0.000
 84749,0.00010098,-0.00017479,0.00007497,0.00067680,-0.00066764,-0.0003
 8695,0.00089880,0.00457032,-0.00015192,-0.00004001,-0.00003743,0.00011
 059,-0.10065150,-0.24249697,0.08525180,0.00138323,0.00162918,0.0005793
 5,0.10902083,0.25342221,-0.00000840,-0.00015323,-0.00004995,-0.0000289
 5,0.00012641,-0.00009589,0.00004637,0.00000007,0.00002004,-0.00000270,
 0.00001125,-0.00000293,-0.00004073,0.00000100,-0.00001226,-0.00009163,
 0.00071031,0.00049121,-0.00014700,0.00025587,0.00005097,-0.00034802,-0
 .00034130,0.00000495,-0.00007987,0.00004224,-0.00006116,-0.00004072,-0
 .00001669,-0.00002277,0.00033937,-0.00010189,0.00012905,-0.00471230,0.
 00032626,-0.00517618,-0.00001046,-0.00045979,-0.00024464,-0.00024486,0
 .00035261,0.00021061,0.00876135,0.01463611,-0.00118126,0.00081218,-0.0
 0076482,-0.00033465,0.05453992,0.08324110,-0.07874747,0.00748640,0.000
 62921,0.00743177,-0.06417085,-0.09394815,0.07354817,-0.00969965,0.0276
 9865,-0.00824530,-0.08876346,0.08672029,-0.02884379,-0.00554971,-0.000
 54630,-0.00163187,0.00095818,-0.00024012,0.00086906,0.00094957,-0.0005
 0140,-0.00035062,0.01068436,-0.01924272,0.00487574,-0.00141105,-0.0016
 2666,-0.00315664,-0.00053624,-0.00129886,0.00023872,0.00004472,-0.0005
 2968,0.00006895,-0.00006685,0.00036256,0.00017414,0.00033075,0.0000821
 7,-0.00007521,-0.00040185,0.00055235,0.00182192,-0.00001430,0.00000917
 ,-0.00002181,-0.00002917,0.00004311,0.00004401,-0.00078017,-0.00142581
 ,0.00004279,0.00032062,0.00000401,0.00010701,0.00005160,0.00036045,-0.
 00008295,-0.00137201,0.00025320,-0.00014546,0.00002216,-0.00000284,-0.
 00011378,0.09526433,-0.00048012,0.00123904,0.00004582,0.08362394,-0.27
 065611,0.06308345,-0.00051822,0.00142134,-0.00016744,0.00047274,0.0001
 9638,0.00002248,0.00064955,0.00033765,0.00028344,0.00893858,-0.0251469
 6,0.00800152,-0.00352904,0.00185586,0.00060448,-0.00143938,-0.00164931
 ,0.00020583,0.00018946,0.00020105,-0.00016521,0.00023576,-0.00041636,0
 .00023627,0.00085666,-0.00056193,-0.00025430,0.00189165,0.00036359,-0.
 00117595,-0.00009214,0.00003317,0.00001377,-0.00005033,0.00007829,0.00
 007792,0.00032125,-0.00041280,0.00031053,-0.00056207,-0.00020739,-0.00
 018020,0.00001739,0.00056834,-0.00001977,0.00001180,0.00100017,-0.0001
 7890,0.00012169,-0.00000910,-0.00017054,-0.09069029,0.29176447,-0.0029
 8032,0.00728241,0.00006698,-0.02787768,0.06321265,-0.05589068,-0.00174
 362,-0.00006466,0.00092104,-0.00068409,-0.00013422,0.00025497,0.000826
 51,0.00001800,0.00030491,-0.00068770,0.00006492,0.00566865,-0.00224001
 ,0.00167447,0.01133538,-0.00045105,0.00061106,-0.00027948,0.00003932,0
 .00154473,-0.00077510,0.00034734,-0.00194603,0.00011066,0.00070214,-0.
 00066332,0.00031084,0.00181238,-0.00071981,-0.00698106,-0.00000448,0.0
 0017812,-0.00003736,0.00003684,-0.00001490,-0.00004762,0.00004029,0.00
 034372,0.00007015,-0.00151094,-0.00025728,-0.00046969,0.00004856,-0.00
 022263,-0.00015655,-0.00012788,-0.00021120,0.00043653,0.00004098,-0.00
 000203,0.00007949,0.03437151,-0.07065222,0.04514378,-0.00002212,-0.000
 02988,0.00005212,-0.00004433,-0.00010370,-0.00011064,-0.00000662,0.000
 00268,-0.00000581,-0.00003842,0.00000797,-0.00000330,-0.00002883,0.000
 00145,-0.00001788,0.00060292,-0.00025652,0.00007206,0.00016623,-0.0001
 0178,0.00000070,0.00005854,0.00026705,-0.00031596,0.00002182,-0.000023
 59,0.00003211,0.00000035,0.00001993,-0.00001701,-0.00020195,-0.0006198
 6,0.00054893,0.00113615,-0.00108595,0.00696453,0.00004492,0.00012417,0
 .00009459,0.00003659,-0.00000655,-0.00032147,-0.01067553,0.02652043,0.
 00526487,-0.00114703,0.00148079,0.00047900,-0.10342084,0.10751597,0.02
 882908,-0.00135712,-0.00053064,-0.00411700,0.00785173,-0.01201089,-0.0
 0194532,-0.00000183,0.00003111,0.00004190,0.10702535,-0.00000441,0.000
 02795,0.00004035,0.00001531,-0.00000840,0.00001213,-0.00000107,-0.0000
 0345,0.00000106,0.00001360,-0.00000054,-0.00000524,0.00003144,0.000002
 28,0.00001567,0.00011926,-0.00023466,-0.00020922,-0.00006669,-0.000077
 41,-0.00006941,0.00036594,-0.00002506,-0.00020431,0.00006283,-0.000014
 91,0.00001985,0.00002203,0.00001887,0.00002411,-0.00028227,0.00020828,
 0.00040528,0.00009249,0.00158990,0.00156249,0.00002127,0.00010523,0.00
 009475,-0.00004305,0.00007135,-0.00035721,-0.00147369,0.00177152,0.001
 00798,-0.00005056,0.00021225,-0.00003353,0.11180225,-0.27693943,-0.037
 71791,-0.00035853,0.00134852,-0.00093872,0.01091730,-0.01613416,-0.004
 37603,0.00001872,0.00000061,-0.00004178,-0.12120218,0.28808125,-0.0000
 2338,0.00013203,0.00010944,0.00000537,-0.00024024,0.00002785,-0.000014
 17,-0.00000964,-0.00000838,0.00002040,-0.00001081,-0.00000765,0.000055
 23,0.00000357,0.00002415,0.00065865,-0.00203139,-0.00074070,0.00078617
 ,0.00019705,0.00008646,-0.00034469,0.00004930,0.00010811,0.00001360,-0
 .00016275,0.00005155,0.00001028,-0.00009307,0.00000004,0.00010965,0.00
 022596,-0.00028220,0.00737514,0.00247522,0.00841460,-0.00003343,-0.000
 05721,-0.00003853,0.00002481,-0.00011481,0.00027387,0.00856298,-0.0157
 9396,0.00001525,-0.00118563,0.00139745,0.00022486,0.02837699,-0.035266
 47,-0.04649939,-0.00424490,-0.00099753,-0.00561016,-0.00468112,0.00944
 854,0.00396291,0.00005356,0.00007905,-0.00006585,-0.03552551,0.0407697
 0,0.03995377\\0.,-0.00000056,-0.00000013,-0.00000191,0.00000117,-0.000
 00234,0.00000039,-0.00000055,-0.00000224,-0.00000084,0.00000184,0.0000
 0001,0.00000071,-0.00000095,0.00000250,0.00000580,0.00000418,0.0000021
 6,-0.00001386,0.00000266,0.00000392,0.00000725,-0.00000984,0.00000651,
 0.00000295,0.00000073,-0.00000510,0.00000427,-0.00000487,-0.00000230,-
 0.00000290,0.00001750,-0.00000404,0.00000305,-0.00002305,-0.00001381,-
 0.00000086,-0.00000289,0.00000024,0.00000191,-0.00000199,-0.00000278,-
 0.00000700,0.00000898,0.00001159,0.00000032,0.00000463,0.00000683,-0.0
 0000664,0.00000454,0.00000946,-0.00000155,0.00000208,-0.00000183,0.000
 00420,0.00001834,-0.00000648,0.00000055,-0.00000028,-0.00000222,0.0000
 0416,-0.00002164,0.00000005\\\@


 I WISH TO HAVE NO CONNECTION WITH ANY SHIP THAT DOES NOT SAIL FAST,
 FOR I INTEND TO GO IN HARM'S WAY.
     -- JOHN PAUL JONES, USN 1747-1792
 Job cpu time:       0 days  2 hours 25 minutes 22.8 seconds.
 Elapsed time:       0 days  0 hours 12 minutes  7.4 seconds.
 File lengths (MBytes):  RWF=    212 Int=      0 D2E=      0 Chk=     32 Scr=      1
 Normal termination of Gaussian 16 at Fri Jun 10 10:54:15 2022.
