 Entering Gaussian System, Link 0=g16
 Input=ts_zmat_field_N75.gjf
 Output=ts_zmat_field_N75.out
 Initial command:
 /software/gaussian/g16-a03/l1.exe "/local_scratch/11171389/Gau-4960.inp" -scrdir="/local_scratch/11171389/"
 Entering Link 1 = /software/gaussian/g16-a03/l1.exe PID=      4961.
  
 Copyright (c) 1988,1990,1992,1993,1995,1998,2003,2009,2016,
            Gaussian, Inc.  All Rights Reserved.
  
 This is part of the Gaussian(R) 16 program.  It is based on
 the Gaussian(R) 09 system (copyright 2009, Gaussian, Inc.),
 the Gaussian(R) 03 system (copyright 2003, Gaussian, Inc.),
 the Gaussian(R) 98 system (copyright 1998, Gaussian, Inc.),
 the Gaussian(R) 94 system (copyright 1995, Gaussian, Inc.),
 the Gaussian 92(TM) system (copyright 1992, Gaussian, Inc.),
 the Gaussian 90(TM) system (copyright 1990, Gaussian, Inc.),
 the Gaussian 88(TM) system (copyright 1988, Gaussian, Inc.),
 the Gaussian 86(TM) system (copyright 1986, Carnegie Mellon
 University), and the Gaussian 82(TM) system (copyright 1983,
 Carnegie Mellon University). Gaussian is a federally registered
 trademark of Gaussian, Inc.
  
 This software contains proprietary and confidential information,
 including trade secrets, belonging to Gaussian, Inc.
  
 This software is provided under written license and may be
 used, copied, transmitted, or stored only in accord with that
 written license.
  
 The following legend is applicable only to US Government
 contracts under FAR:
  
                    RESTRICTED RIGHTS LEGEND
  
 Use, reproduction and disclosure by the US Government is
 subject to restrictions as set forth in subparagraphs (a)
 and (c) of the Commercial Computer Software - Restricted
 Rights clause in FAR 52.227-19.
  
 Gaussian, Inc.
 340 Quinnipiac St., Bldg. 40, Wallingford CT 06492
  
  
 ---------------------------------------------------------------
 Warning -- This program may not be used in any manner that
 competes with the business of Gaussian, Inc. or will provide
 assistance to any competitor of Gaussian, Inc.  The licensee
 of this program is prohibited from giving any competitor of
 Gaussian, Inc. access to this program.  By using this program,
 the user acknowledges that Gaussian, Inc. is engaged in the
 business of creating and licensing software in the field of
 computational chemistry and represents and warrants to the
 licensee that it is not a competitor of Gaussian, Inc. and that
 it will not use this program in any manner prohibited above.
 ---------------------------------------------------------------
  

 Cite this work as:
 Gaussian 16, Revision A.03,
 M. J. Frisch, G. W. Trucks, H. B. Schlegel, G. E. Scuseria, 
 M. A. Robb, J. R. Cheeseman, G. Scalmani, V. Barone, 
 G. A. Petersson, H. Nakatsuji, X. Li, M. Caricato, A. V. Marenich, 
 J. Bloino, B. G. Janesko, R. Gomperts, B. Mennucci, H. P. Hratchian, 
 J. V. Ortiz, A. F. Izmaylov, J. L. Sonnenberg, D. Williams-Young, 
 F. Ding, F. Lipparini, F. Egidi, J. Goings, B. Peng, A. Petrone, 
 T. Henderson, D. Ranasinghe, V. G. Zakrzewski, J. Gao, N. Rega, 
 G. Zheng, W. Liang, M. Hada, M. Ehara, K. Toyota, R. Fukuda, 
 J. Hasegawa, M. Ishida, T. Nakajima, Y. Honda, O. Kitao, H. Nakai, 
 T. Vreven, K. Throssell, J. A. Montgomery, Jr., J. E. Peralta, 
 F. Ogliaro, M. J. Bearpark, J. J. Heyd, E. N. Brothers, K. N. Kudin, 
 V. N. Staroverov, T. A. Keith, R. Kobayashi, J. Normand, 
 K. Raghavachari, A. P. Rendell, J. C. Burant, S. S. Iyengar, 
 J. Tomasi, M. Cossi, J. M. Millam, M. Klene, C. Adamo, R. Cammi, 
 J. W. Ochterski, R. L. Martin, K. Morokuma, O. Farkas, 
 J. B. Foresman, and D. J. Fox, Gaussian, Inc., Wallingford CT, 2016.
 
 ******************************************
 Gaussian 16:  ES64L-G16RevA.03 25-Dec-2016
                10-Jun-2022 
 ******************************************
 %nprocshared=12
 Will use up to   12 processors via shared memory.
 %chk=checkpoint.chk
 %mem=12GB
 ----------------------------------------------------------------------
 # Opt=(TS, CalcFC, noeigentest, Z-matrix, MaxStep=10) geom=allcheckpoi
 nt guess=read Field=read NoSymm B3LYP/Def2TZVP freq=noraman pop=none
 ----------------------------------------------------------------------
 1/5=1,8=10,10=4,11=1,18=40,26=3,29=7,38=1/1,3;
 2/12=2,15=1,29=3,40=1/2;
 3/5=44,7=101,11=2,14=-6,25=1,30=1,71=2,74=-5,116=-2,140=1/1,2,3;
 4/5=1/1;
 5/5=2,38=6/2;
 8/6=4,10=90,11=11/1;
 11/6=1,8=1,9=11,15=111,16=1,31=1/1,2,10;
 10/6=1,13=1,31=1/2;
 7/10=1,18=20,25=1,30=1/1,2,3,16;
 1/5=1,8=10,10=4,11=1,18=40,26=3/3(2);
 2/15=1,29=3/2;
 99//99;
 2/15=1,29=3/2;
 3/5=44,7=101,11=2,14=-2,25=1,30=1,71=1,74=-5/1,2,3;
 4/5=5,16=3,69=1/1;
 5/5=2,38=5/2;
 7/30=1/1,2,3,16;
 1/5=1,8=10,11=1,18=40,26=3/3(-5);
 2/15=1,29=3/2;
 99/9=1/99;
 Structure from the checkpoint file:  "checkpoint.chk"
 -----------------
 ts_zmat_initalOpt
 -----------------
 Charge =  0 Multiplicity = 1
 Z-Matrix found in chk file.
 C
 C,1,R2
 C,1,R3,2,A3
 H,1,R4,2,A4,3,D4,0
 H,1,R5,2,A5,3,D5,0
 C,2,R6,1,A6,3,D6,0
 C,3,R7,1,A7,2,D7,0
 H,2,R8,1,A8,6,D8,0
 H,2,R9,1,A9,6,D9,0
 H,3,R10,1,A10,7,D10,0
 C,7,R11,3,A11,1,D11,0
 C,6,R12,2,A12,1,D12,0
 H,6,R13,2,A13,12,D13,0
 H,7,R14,3,A14,11,D14,0
 C,12,R15,6,A15,2,D15,0
 H,12,R16,6,A16,15,D16,0
 H,11,R17,7,A17,3,D17,0
 H,11,R18,7,A18,17,D18,0
 H,15,R19,12,A19,6,D19,0
 H,15,R20,12,A20,19,D20,0
      Variables:
 R2=1.53930778
 R3=1.52395696
 R4=1.09188017
 R5=1.09193499
 R6=1.52335447
 R7=1.39160954
 R8=1.0904893
 R9=1.09100937
 R10=1.084018
 R11=1.37858074
 R12=1.39094584
 R13=1.08357456
 R14=1.08740024
 R15=1.37578717
 R16=1.08611583
 R17=1.07983309
 R18=1.08209241
 R19=1.08003012
 R20=1.08158815
 A3=102.4557548
 A4=112.55260819
 A5=112.63002761
 A6=102.24508587
 A7=123.8993741
 A8=112.60957952
 A9=112.98993011
 A10=116.47631567
 A11=124.90289987
 A12=124.134843
 A13=116.39756885
 A14=116.15131408
 A15=124.67560558
 A16=116.48977883
 A17=121.3674423
 A18=120.14262456
 A19=121.17939728
 A20=120.10494755
 D4=119.18819845
 D5=-120.01241956
 D6=1.25929112
 D7=-100.98934708
 D8=-118.63730856
 D9=120.36889377
 D10=-161.84270455
 D11=18.87988153
 D12=98.84615768
 D13=161.36544551
 D14=164.07539178
 D15=-18.34108708
 D16=-166.38969192
 D17=-26.13779536
 D18=-159.92066577
 D19=24.97567336
 D20=159.03722358
 Recover connectivity data from disk.

 GradGradGradGradGradGradGradGradGradGradGradGradGradGradGradGradGradGrad
 Berny optimization.
 Initialization pass.
                       ----------------------------
                       !    Initial Parameters    !
                       ! (Angstroms and Degrees)  !
 ----------------------                            ----------------------
 !      Name          Value   Derivative information (Atomic Units)     !
 ------------------------------------------------------------------------
 !       R2          1.5393   calculate D2E/DX2 analytically            !
 !       R3          1.524    calculate D2E/DX2 analytically            !
 !       R4          1.0919   calculate D2E/DX2 analytically            !
 !       R5          1.0919   calculate D2E/DX2 analytically            !
 !       R6          1.5234   calculate D2E/DX2 analytically            !
 !       R7          1.3916   calculate D2E/DX2 analytically            !
 !       R8          1.0905   calculate D2E/DX2 analytically            !
 !       R9          1.091    calculate D2E/DX2 analytically            !
 !       R10         1.084    calculate D2E/DX2 analytically            !
 !       R11         1.3786   calculate D2E/DX2 analytically            !
 !       R12         1.3909   calculate D2E/DX2 analytically            !
 !       R13         1.0836   calculate D2E/DX2 analytically            !
 !       R14         1.0874   calculate D2E/DX2 analytically            !
 !       R15         1.3758   calculate D2E/DX2 analytically            !
 !       R16         1.0861   calculate D2E/DX2 analytically            !
 !       R17         1.0798   calculate D2E/DX2 analytically            !
 !       R18         1.0821   calculate D2E/DX2 analytically            !
 !       R19         1.08     calculate D2E/DX2 analytically            !
 !       R20         1.0816   calculate D2E/DX2 analytically            !
 !       A3        102.4558   calculate D2E/DX2 analytically            !
 !       A4        112.5526   calculate D2E/DX2 analytically            !
 !       A5        112.63     calculate D2E/DX2 analytically            !
 !       A6        102.2451   calculate D2E/DX2 analytically            !
 !       A7        123.8994   calculate D2E/DX2 analytically            !
 !       A8        112.6096   calculate D2E/DX2 analytically            !
 !       A9        112.9899   calculate D2E/DX2 analytically            !
 !       A10       116.4763   calculate D2E/DX2 analytically            !
 !       A11       124.9029   calculate D2E/DX2 analytically            !
 !       A12       124.1348   calculate D2E/DX2 analytically            !
 !       A13       116.3976   calculate D2E/DX2 analytically            !
 !       A14       116.1513   calculate D2E/DX2 analytically            !
 !       A15       124.6756   calculate D2E/DX2 analytically            !
 !       A16       116.4898   calculate D2E/DX2 analytically            !
 !       A17       121.3674   calculate D2E/DX2 analytically            !
 !       A18       120.1426   calculate D2E/DX2 analytically            !
 !       A19       121.1794   calculate D2E/DX2 analytically            !
 !       A20       120.1049   calculate D2E/DX2 analytically            !
 !       D4        119.1882   calculate D2E/DX2 analytically            !
 !       D5       -120.0124   calculate D2E/DX2 analytically            !
 !       D6          1.2593   calculate D2E/DX2 analytically            !
 !       D7       -100.9893   calculate D2E/DX2 analytically            !
 !       D8       -118.6373   calculate D2E/DX2 analytically            !
 !       D9        120.3689   calculate D2E/DX2 analytically            !
 !       D10      -161.8427   calculate D2E/DX2 analytically            !
 !       D11        18.8799   calculate D2E/DX2 analytically            !
 !       D12        98.8462   calculate D2E/DX2 analytically            !
 !       D13       161.3654   calculate D2E/DX2 analytically            !
 !       D14       164.0754   calculate D2E/DX2 analytically            !
 !       D15       -18.3411   calculate D2E/DX2 analytically            !
 !       D16      -166.3897   calculate D2E/DX2 analytically            !
 !       D17       -26.1378   calculate D2E/DX2 analytically            !
 !       D18      -159.9207   calculate D2E/DX2 analytically            !
 !       D19        24.9757   calculate D2E/DX2 analytically            !
 !       D20       159.0372   calculate D2E/DX2 analytically            !
 ------------------------------------------------------------------------
 Trust Radius=1.00D-01 FncErr=1.00D-07 GrdErr=1.00D-06 EigMax=2.50D+02 EigMin=1.00D-04
 Number of steps in this run=     64 maximum allowed number of steps=    108.
 Search for a saddle point of order  1.
 GradGradGradGradGradGradGradGradGradGradGradGradGradGradGradGradGradGrad

 ---------------------------------------------------------------------------------------------------
                            Z-MATRIX (ANGSTROMS AND DEGREES)
   CD    Cent   Atom    N1       Length/X        N2       Alpha/Y        N3        Beta/Z          J
 ---------------------------------------------------------------------------------------------------
      1      1  C 
      2      2  C        1   1.539308(     1)
      3      3  C        1   1.523957(     2)      2  102.456(    20)
      4      4  H        1   1.091880(     3)      2  112.553(    21)      3  119.188(    38)      0
      5      5  H        1   1.091935(     4)      2  112.630(    22)      3 -120.012(    39)      0
      6      6  C        2   1.523354(     5)      1  102.245(    23)      3    1.259(    40)      0
      7      7  C        3   1.391610(     6)      1  123.899(    24)      2 -100.989(    41)      0
      8      8  H        2   1.090489(     7)      1  112.610(    25)      6 -118.637(    42)      0
      9      9  H        2   1.091009(     8)      1  112.990(    26)      6  120.369(    43)      0
     10     10  H        3   1.084018(     9)      1  116.476(    27)      7 -161.843(    44)      0
     11     11  C        7   1.378581(    10)      3  124.903(    28)      1   18.880(    45)      0
     12     12  C        6   1.390946(    11)      2  124.135(    29)      1   98.846(    46)      0
     13     13  H        6   1.083575(    12)      2  116.398(    30)     12  161.365(    47)      0
     14     14  H        7   1.087400(    13)      3  116.151(    31)     11  164.075(    48)      0
     15     15  C       12   1.375787(    14)      6  124.676(    32)      2  -18.341(    49)      0
     16     16  H       12   1.086116(    15)      6  116.490(    33)     15 -166.390(    50)      0
     17     17  H       11   1.079833(    16)      7  121.367(    34)      3  -26.138(    51)      0
     18     18  H       11   1.082092(    17)      7  120.143(    35)     17 -159.921(    52)      0
     19     19  H       15   1.080030(    18)     12  121.179(    36)      6   24.976(    53)      0
     20     20  H       15   1.081588(    19)     12  120.105(    37)     19  159.037(    54)      0
 ---------------------------------------------------------------------------------------------------
                         Z-Matrix orientation:                         
 ---------------------------------------------------------------------
 Center     Atomic      Atomic             Coordinates (Angstroms)
 Number     Number       Type             X           Y           Z
 ---------------------------------------------------------------------
      1          6           0        0.000000    0.000000    0.000000
      2          6           0        0.000000    0.000000    1.539308
      3          6           0        1.488087    0.000000   -0.328696
      4          1           0       -0.491767   -0.880340   -0.418771
      5          1           0       -0.504122    0.872728   -0.420154
      6          6           0        1.488338    0.032717    1.862402
      7          6           0        2.198479    1.133881   -0.711103
      8          1           0       -0.462931   -0.893924    1.958546
      9          1           0       -0.526688    0.855177    1.965423
     10          1           0        1.933883   -0.962741   -0.551159
     11          6           0        1.787044    2.432052   -0.496724
     12          6           0        2.188371    1.185998    2.200968
     13          1           0        1.945049   -0.913936    2.125835
     14          1           0        3.244882    0.981086   -0.964351
     15          6           0        1.754458    2.467164    1.949728
     16          1           0        3.228632    1.055562    2.484678
     17          1           0        0.740817    2.681501   -0.400681
     18          1           0        2.444268    3.257195   -0.737803
     19          1           0        0.703383    2.690167    1.840287
     20          1           0        2.388329    3.310895    2.186703
 ---------------------------------------------------------------------
                    Distance matrix (angstroms):
                    1          2          3          4          5
     1  C    0.000000
     2  C    1.539308   0.000000
     3  C    1.523957   2.388271   0.000000
     4  H    1.091880   2.202477   2.168626   0.000000
     5  H    1.091935   2.203471   2.176905   1.753112   0.000000
     6  C    2.384273   1.523354   2.191342   3.155667   3.144133
     7  C    2.573842   3.344151   1.391610   3.373421   2.730733
     8  H    2.202115   1.090489   3.136407   2.377530   2.963270
     9  H    2.207173   1.091009   3.170745   2.949172   2.385748
    10  H    2.229474   3.006132   1.084018   2.430658   3.054502
    11  C    3.058617   3.640580   2.456111   4.021318   2.772507
    12  C    3.322622   2.575530   2.880310   4.279711   3.770668
    13  H    3.022858   2.227669   2.658724   3.523382   3.958871
    14  H    3.524452   4.214273   2.110193   4.210120   3.789844
    15  C    3.600897   3.055072   3.368837   4.675585   3.641393
    16  H    4.208551   3.525904   3.472575   5.100892   4.733384
    17  H    2.810659   3.391580   2.784608   3.769125   2.195886
    18  H    4.138613   4.665726   3.419206   5.083432   3.805205
    19  H    3.334427   2.796844   3.543621   4.390928   3.141775
    20  H    4.631179   4.133433   4.254373   5.714009   4.594196
                    6          7          8          9         10
     6  C    0.000000
     7  C    2.887869   0.000000
     8  H    2.162258   4.280435   0.000000
     9  H    2.178849   3.829883   1.750276   0.000000
    10  H    2.648533   2.119296   3.471034   3.961366   0.000000
    11  C    3.378092   1.378581   4.706682   3.728546   3.398403
    12  C    1.390946   2.912555   3.378498   2.745263   3.500864
    13  H    1.083575   3.507990   2.413867   3.043842   2.677462
    14  H    3.460546   1.087400   5.080046   4.777464   2.380737
    15  C    2.450506   3.009123   4.026637   2.793273   4.248633
    16  H    2.112360   3.358626   4.207725   3.796342   3.868621
    17  H    3.563199   2.148550   4.449565   3.246610   3.837519
    18  H    4.251132   2.137659   5.740548   4.680139   4.254784
    19  H    2.771044   3.341696   3.770940   2.212674   4.536175
    20  H    3.414910   3.629423   5.085494   3.817964   5.095722
                   11         12         13         14         15
    11  C    0.000000
    12  C    2.998542   0.000000
    13  H    4.254223   2.115318   0.000000
    14  H    2.109328   3.343269   3.850964   0.000000
    15  C    2.446920   1.375787   3.391044   3.594669   0.000000
    16  H    3.586315   1.086116   2.378082   3.449871   2.109973
    17  H    1.079833   3.331744   4.556383   3.078875   2.568623
    18  H    1.082092   3.604402   5.084090   2.423422   2.884927
    19  H    2.588931   2.144249   3.822673   4.152850   1.080030
    20  H    2.886986   2.134333   4.248459   4.011337   1.081588
                   16         17         18         19         20
    16  H    0.000000
    17  H    4.142245   0.000000
    18  H    3.980804   1.829431   0.000000
    19  H    3.076371   2.241297   3.162080   0.000000
    20  H    2.425166   3.131291   2.925533   1.828757   0.000000
 Symmetry turned off by external request.
 Stoichiometry    C8H12
 Framework group  C1[X(C8H12)]
 Deg. of freedom    54
 Full point group                 C1      NOp   1
 Rotational constants (GHZ):           2.4879669           2.3088519           1.5808818
 Standard basis: def2TZVP (5D, 7F)
 The following finite field(s) will be applied:
 An electric field of              0.0019  0.0018 -0.0070
   320 basis functions,   504 primitive gaussians,   360 cartesian basis functions
    30 alpha electrons       30 beta electrons
       nuclear repulsion energy       368.0769451085 Hartrees.
 NAtoms=   20 NActive=   20 NUniq=   20 SFac= 1.00D+00 NAtFMM=   60 NAOKFM=F Big=F
 Integral buffers will be    131072 words long.
 Raffenetti 2 integral format.
 Two-electron integral symmetry is turned off.
 One-electron integrals computed using PRISM.
   1 Symmetry operations used in ECPInt.
 ECPInt:  NShTT=    9316 NPrTT=   27240 LenC2=    9238 LenP2D=   22123.
 LDataN:  DoStor=T MaxTD1= 6 Len=  172
 NBasis=   320 RedAO= T EigKep=  2.58D-05  NBF=   320
 NBsUse=   320 1.00D-06 EigRej= -1.00D+00 NBFU=   320
 The nuclear repulsion energy is now       367.9579814988 hartrees.
 Initial guess from the checkpoint file:  "checkpoint.chk"
 B after Tr=     0.000000   -0.000000    0.000000
         Rot=    1.000000    0.000000    0.000000    0.000000 Ang=   0.00 deg.
 Requested convergence on RMS density matrix=1.00D-08 within 128 cycles.
 Requested convergence on MAX density matrix=1.00D-06.
 Requested convergence on             energy=1.00D-06.
 No special actions if energy rises.
 SCF Done:  E(RB3LYP) =  -312.083464545     A.U. after   10 cycles
            NFock= 10  Conv=0.72D-08     -V/T= 2.0056
 DoSCS=F DFT=T ScalE2(SS,OS)=  1.000000  1.000000
 Range of M.O.s used for correlation:     1   320
 NBasis=   320 NAE=    30 NBE=    30 NFC=     0 NFV=     0
 NROrb=    320 NOA=    30 NOB=    30 NVA=   290 NVB=   290

 **** Warning!!: The largest alpha MO coefficient is  0.35966105D+02

   1 Symmetry operations used in ECPInt.
 ECPInt:  NShTT=    9316 NPrTT=   27240 LenC2=    9238 LenP2D=   22123.
 LDataN:  DoStor=T MaxTD1= 7 Len=  274
 Symmetrizing basis deriv contribution to polar:
 IMax=3 JMax=2 DiffMx= 0.00D+00
 G2DrvN: will do    21 centers at a time, making    1 passes.
 Calling FoFCou, ICntrl=  3107 FMM=F I1Cent=   0 AccDes= 0.00D+00.
 End of G2Drv F.D. properties file   721 does not exist.
 End of G2Drv F.D. properties file   722 does not exist.
 End of G2Drv F.D. properties file   788 does not exist.
          IDoAtm=11111111111111111111
          Differentiating once with respect to nuclear coordinates.
 Keep R1 ints in memory in canonical form, NReq=1342482924.
          There are    63 degrees of freedom in the 1st order CPHF.  IDoFFX=6 NUNeed=     0.
     57 vectors produced by pass  0 Test12= 1.38D-14 1.59D-09 XBig12= 9.18D-02 1.24D-01.
 AX will form    57 AO Fock derivatives at one time.
     57 vectors produced by pass  1 Test12= 1.38D-14 1.59D-09 XBig12= 1.92D-02 5.55D-02.
     57 vectors produced by pass  2 Test12= 1.38D-14 1.59D-09 XBig12= 1.99D-04 2.27D-03.
     57 vectors produced by pass  3 Test12= 1.38D-14 1.59D-09 XBig12= 8.32D-07 8.64D-05.
     57 vectors produced by pass  4 Test12= 1.38D-14 1.59D-09 XBig12= 1.75D-09 5.81D-06.
     49 vectors produced by pass  5 Test12= 1.38D-14 1.59D-09 XBig12= 3.02D-12 1.78D-07.
      9 vectors produced by pass  6 Test12= 1.38D-14 1.59D-09 XBig12= 3.92D-15 5.66D-09.
 InvSVY:  IOpt=1 It=  1 EMax= 3.89D-16
 Solved reduced A of dimension   343 with    63 vectors.
 End of Minotr F.D. properties file   721 does not exist.
 End of Minotr F.D. properties file   722 does not exist.
 End of Minotr F.D. properties file   788 does not exist.
   1 Symmetry operations used in ECPInt.
 ECPInt:  NShTT=    9316 NPrTT=   27240 LenC2=    9238 LenP2D=   22123.
 LDataN:  DoStor=T MaxTD1= 8 Len=  415
 Calling FoFJK, ICntrl=    100147 FMM=F ISym2X=0 I1Cent= 0 IOpClX= 0 NMat=1 NMatS=1 NMatT=0.
 -------------------------------------------------------------------
 Center     Atomic                   Forces (Hartrees/Bohr)
 Number     Number              X              Y              Z
 -------------------------------------------------------------------
      1        6           0.000263257   -0.000312786    0.000128580
      2        6          -0.000308943    0.000231657    0.000279054
      3        6           0.000249277   -0.000204195   -0.000313226
      4        1          -0.000045593   -0.000096717    0.000102273
      5        1          -0.000067653    0.000178426   -0.000004162
      6        6          -0.000520265    0.000107437    0.000127747
      7        6          -0.000484286   -0.000471193   -0.000758863
      8        1           0.000138206    0.000259301    0.000031103
      9        1           0.000066273   -0.000232079    0.000007872
     10        1           0.000067116   -0.000117232    0.000114471
     11        6          -0.000043552    0.000545928   -0.000190267
     12        6           0.000554769    0.000286553   -0.000689523
     13        1          -0.000026890    0.000079779    0.000022491
     14        1           0.000350598   -0.000052843    0.000226814
     15        6          -0.000224448   -0.000329025    0.000099548
     16        1          -0.000150585   -0.000012502    0.000276793
     17        1           0.000021123    0.000017922    0.000140928
     18        1           0.000170756    0.000206045    0.000050035
     19        1           0.000016478   -0.000031130    0.000172959
     20        1          -0.000025637   -0.000053346    0.000175371
 -------------------------------------------------------------------
 Cartesian Forces:  Max     0.000758863 RMS     0.000257980
 -----------------------------------------------------------------------------------------------
                       Internal Coordinate Forces (Hartree/Bohr or radian)
  Cent   Atom   N1       Length/X         N2         Alpha/Y        N3         Beta/Z          J
 -----------------------------------------------------------------------------------------------
      1  C 
      2  C        1   0.000503(     1)
      3  C        1   0.000481(     2)      2   0.002012(    20)
      4  H        1   0.000059(     3)      2  -0.000279(    21)      3  -0.000014(    38)     0
      5  H        1   0.000175(     4)      2  -0.000142(    22)      3   0.000058(    39)     0
      6  C        2  -0.000328(     5)      1   0.000777(    23)      3   0.000627(    40)     0
      7  C        3   0.000354(     6)      1   0.000876(    24)      2  -0.001201(    41)     0
      8  H        2  -0.000259(     7)      1   0.000292(    25)      6   0.000007(    42)     0
      9  H        2  -0.000211(     8)      1   0.000202(    26)      6   0.000124(    43)     0
     10  H        3   0.000108(     9)      1  -0.000017(    27)      7  -0.000257(    44)     0
     11  C        7   0.000681(    10)      3   0.000933(    28)      1  -0.000141(    45)     0
     12  C        6  -0.000021(    11)      2  -0.000021(    29)      1   0.001325(    46)     0
     13  H        6  -0.000076(    12)      2   0.000032(    30)     12  -0.000074(    47)     0
     14  H        7   0.000292(    13)      3  -0.000126(    31)     11  -0.000548(    48)     0
     15  C       12  -0.000393(    14)      6  -0.000264(    32)      2   0.000792(    49)     0
     16  H       12  -0.000070(    15)      6   0.000029(    33)     15  -0.000564(    50)     0
     17  H       11  -0.000004(    16)      7   0.000082(    34)      3   0.000055(    51)     0
     18  H       11   0.000250(    17)      7   0.000060(    35)     17  -0.000185(    52)     0
     19  H       15  -0.000040(    18)     12  -0.000108(    36)      6  -0.000012(    53)     0
     20  H       15  -0.000018(    19)     12  -0.000152(    37)     19  -0.000298(    54)     0
 -----------------------------------------------------------------------------------------------
 Internal  Forces:  Max     0.002012443 RMS     0.000497699

 GradGradGradGradGradGradGradGradGradGradGradGradGradGradGradGradGradGrad
 Berny optimization.
 Search for a saddle point.
 Step number   1 out of a maximum of   64
 All quantities printed in internal units (Hartrees-Bohrs-Radians)
 Swapping is turned off.
 Second derivative matrix not updated -- analytic derivatives used.
 ITU=  0
     Eigenvalues ---   -0.13490   0.00566   0.01414   0.02223   0.03549
     Eigenvalues ---    0.05971   0.06154   0.07140   0.07365   0.11550
     Eigenvalues ---    0.11760   0.11940   0.13686   0.14054   0.14507
     Eigenvalues ---    0.14605   0.16836   0.17030   0.17367   0.18593
     Eigenvalues ---    0.20151   0.22201   0.23316   0.24299   0.25429
     Eigenvalues ---    0.27330   0.28706   0.28886   0.29604   0.31284
     Eigenvalues ---    0.32696   0.32977   0.33223   0.33555   0.34177
     Eigenvalues ---    0.34958   0.35105   0.35377   0.35538   0.35766
     Eigenvalues ---    0.35898   0.36695   0.36914   0.38276   0.41865
     Eigenvalues ---    0.43317   0.44438   0.46985   0.50434   0.53500
     Eigenvalues ---    0.57347   0.75818   1.23418   2.39157
 Eigenvectors required to have negative eigenvalues:
                          D7        D12       D19       D17       D10
   1                    0.45135  -0.44609   0.24830  -0.24437  -0.22750
                          A3        A6        D13       R12       D18
   1                    0.22698   0.22613   0.22588  -0.20258   0.19647
 RFO step:  Lambda0=1.421365182D-06 Lambda=-3.59193687D-05.
 Linear search not attempted -- option 19 set.
 Variable       Old X    -DE/DX   Delta X   Delta X   Delta X     New X
                                 (Linear)    (Quad)   (Total)
    R2        2.90887   0.00050   0.00000   0.00026   0.00026   2.90913
    R3        2.87986   0.00048   0.00000  -0.00011  -0.00011   2.87975
    R4        2.06335   0.00006   0.00000   0.00034   0.00034   2.06370
    R5        2.06346   0.00018   0.00000   0.00027   0.00027   2.06372
    R6        2.87872  -0.00033   0.00000  -0.00060  -0.00060   2.87812
    R7        2.62976   0.00035   0.00000  -0.00029  -0.00029   2.62947
    R8        2.06073  -0.00026   0.00000  -0.00085  -0.00085   2.05987
    R9        2.06171  -0.00021   0.00000  -0.00035  -0.00035   2.06136
   R10        2.04850   0.00011   0.00000   0.00016   0.00016   2.04866
   R11        2.60514   0.00068   0.00000   0.00214   0.00214   2.60728
   R12        2.62851  -0.00002   0.00000  -0.00062  -0.00062   2.62789
   R13        2.04766  -0.00008   0.00000  -0.00018  -0.00018   2.04748
   R14        2.05489   0.00029   0.00000   0.00094   0.00094   2.05583
   R15        2.59986  -0.00039   0.00000  -0.00093  -0.00093   2.59893
   R16        2.05246  -0.00007   0.00000  -0.00035  -0.00035   2.05211
   R17        2.04059  -0.00000   0.00000  -0.00019  -0.00019   2.04040
   R18        2.04486   0.00025   0.00000   0.00063   0.00063   2.04549
   R19        2.04096  -0.00004   0.00000   0.00013   0.00013   2.04109
   R20        2.04391  -0.00002   0.00000  -0.00003  -0.00003   2.04388
    A3        1.78819   0.00201   0.00000   0.00228   0.00228   1.79047
    A4        1.96441  -0.00028   0.00000  -0.00026  -0.00026   1.96415
    A5        1.96576  -0.00014   0.00000  -0.00233  -0.00233   1.96343
    A6        1.78451   0.00078   0.00000   0.00111   0.00111   1.78562
    A7        2.16245   0.00088   0.00000   0.00013   0.00013   2.16258
    A8        1.96541   0.00029   0.00000  -0.00080  -0.00080   1.96461
    A9        1.97205   0.00020   0.00000   0.00174   0.00174   1.97379
   A10        2.03290  -0.00002   0.00000   0.00030   0.00030   2.03320
   A11        2.17997   0.00093   0.00000   0.00169   0.00169   2.18166
   A12        2.16656  -0.00002   0.00000   0.00237   0.00237   2.16893
   A13        2.03152   0.00003   0.00000  -0.00030  -0.00030   2.03122
   A14        2.02722  -0.00013   0.00000  -0.00169  -0.00169   2.02554
   A15        2.17600  -0.00026   0.00000  -0.00041  -0.00041   2.17559
   A16        2.03313   0.00003   0.00000   0.00116   0.00116   2.03429
   A17        2.11826   0.00008   0.00000   0.00124   0.00124   2.11950
   A18        2.09688   0.00006   0.00000  -0.00021  -0.00021   2.09667
   A19        2.11498  -0.00011   0.00000  -0.00091  -0.00091   2.11407
   A20        2.09623  -0.00015   0.00000  -0.00011  -0.00011   2.09612
    D4        2.08023  -0.00001   0.00000   0.00341   0.00341   2.08364
    D5       -2.09461   0.00006   0.00000   0.00174   0.00174  -2.09287
    D6        0.02198   0.00063   0.00000   0.01886   0.01886   0.04084
    D7       -1.76260  -0.00120   0.00000  -0.01327  -0.01327  -1.77587
    D8       -2.07061   0.00001   0.00000   0.00294   0.00294  -2.06767
    D9        2.10083   0.00012   0.00000   0.00308   0.00308   2.10391
   D10       -2.82469  -0.00026   0.00000  -0.00827  -0.00827  -2.83296
   D11        0.32952  -0.00014   0.00000  -0.00394  -0.00394   0.32558
   D12        1.72519   0.00132   0.00000  -0.01833  -0.01833   1.70686
   D13        2.81636  -0.00007   0.00000   0.00279   0.00279   2.81914
   D14        2.86366  -0.00055   0.00000  -0.00710  -0.00710   2.85655
   D15       -0.32011   0.00079   0.00000   0.00551   0.00551  -0.31460
   D16       -2.90405  -0.00056   0.00000  -0.01280  -0.01280  -2.91685
   D17       -0.45619   0.00006   0.00000  -0.00279  -0.00279  -0.45898
   D18       -2.79114  -0.00018   0.00000  -0.00550  -0.00550  -2.79664
   D19        0.43591  -0.00001   0.00000  -0.00989  -0.00989   0.42602
   D20        2.77572  -0.00030   0.00000  -0.00213  -0.00213   2.77359
         Item               Value     Threshold  Converged?
 Maximum Force            0.002012     0.000450     NO 
 RMS     Force            0.000498     0.000300     NO 
 Maximum Displacement     0.018860     0.001800     NO 
 RMS     Displacement     0.005123     0.001200     NO 
 Predicted change in Energy=-1.727429D-05
 GradGradGradGradGradGradGradGradGradGradGradGradGradGradGradGradGradGrad

 ---------------------------------------------------------------------------------------------------
                            Z-MATRIX (ANGSTROMS AND DEGREES)
   CD    Cent   Atom    N1       Length/X        N2       Alpha/Y        N3        Beta/Z          J
 ---------------------------------------------------------------------------------------------------
      1      1  C 
      2      2  C        1   1.539443(     1)
      3      3  C        1   1.523900(     2)      2  102.586(    20)
      4      4  H        1   1.092062(     3)      2  112.537(    21)      3  119.384(    38)      0
      5      5  H        1   1.092076(     4)      2  112.497(    22)      3 -119.913(    39)      0
      6      6  C        2   1.523036(     5)      1  102.309(    23)      3    2.340(    40)      0
      7      7  C        3   1.391456(     6)      1  123.907(    24)      2 -101.750(    41)      0
      8      8  H        2   1.090037(     7)      1  112.564(    25)      6 -118.469(    42)      0
      9      9  H        2   1.090823(     8)      1  113.090(    26)      6  120.545(    43)      0
     10     10  H        3   1.084102(     9)      1  116.494(    27)      7 -162.317(    44)      0
     11     11  C        7   1.379715(    10)      3  125.000(    28)      1   18.654(    45)      0
     12     12  C        6   1.390618(    11)      2  124.271(    29)      1   97.796(    46)      0
     13     13  H        6   1.083481(    12)      2  116.381(    30)     12  161.525(    47)      0
     14     14  H        7   1.087898(    13)      3  116.055(    31)     11  163.668(    48)      0
     15     15  C       12   1.375297(    14)      6  124.652(    32)      2  -18.025(    49)      0
     16     16  H       12   1.085930(    15)      6  116.556(    33)     15 -167.123(    50)      0
     17     17  H       11   1.079732(    16)      7  121.438(    34)      3  -26.297(    51)      0
     18     18  H       11   1.082426(    17)      7  120.131(    35)     17 -160.236(    52)      0
     19     19  H       15   1.080098(    18)     12  121.127(    36)      6   24.409(    53)      0
     20     20  H       15   1.081573(    19)     12  120.099(    37)     19  158.915(    54)      0
 ---------------------------------------------------------------------------------------------------
                         Z-Matrix orientation:                         
 ---------------------------------------------------------------------
 Center     Atomic      Atomic             Coordinates (Angstroms)
 Number     Number       Type             X           Y           Z
 ---------------------------------------------------------------------
      1          6           0        0.000000    0.000000    0.000000
      2          6           0        0.000000    0.000000    1.539443
      3          6           0        1.487279    0.000000   -0.332074
      4          1           0       -0.494906   -0.878899   -0.418574
      5          1           0       -0.503153    0.874564   -0.417858
      6          6           0        1.486787    0.060753    1.864117
      7          6           0        2.193591    1.130638   -0.730734
      8          1           0       -0.443299   -0.903728    1.957706
      9          1           0       -0.544822    0.842650    1.967234
     10          1           0        1.937418   -0.965054   -0.535352
     11          6           0        1.778544    2.432120   -0.537099
     12          6           0        2.171522    1.228252    2.183340
     13          1           0        1.957384   -0.874651    2.142483
     14          1           0        3.242865    0.977503   -0.973829
     15          6           0        1.718613    2.498749    1.914730
     16          1           0        3.210892    1.116534    2.477399
     17          1           0        0.731916    2.682169   -0.448398
     18          1           0        2.437330    3.254878   -0.783505
     19          1           0        0.664472    2.702427    1.796768
     20          1           0        2.336590    3.355369    2.147339
 ---------------------------------------------------------------------
                    Distance matrix (angstroms):
                    1          2          3          4          5
     1  C    0.000000
     2  C    1.539443   0.000000
     3  C    1.523900   2.390518   0.000000
     4  H    1.092062   2.202550   2.170024   0.000000
     5  H    1.092076   2.202057   2.175785   1.753482   0.000000
     6  C    2.385196   1.523036   2.197032   3.165554   3.135213
     7  C    2.573744   3.353191   1.391456   3.371009   2.726883
     8  H    2.201329   1.090037   3.128410   2.376970   2.968031
     9  H    2.208371   1.090823   3.182187   2.942500   2.385670
    10  H    2.229691   2.998282   1.084102   2.436650   3.058494
    11  C    3.060540   3.659297   2.458064   4.018143   2.765202
    12  C    3.315280   2.576570   2.881684   4.280173   3.747694
    13  H    3.030941   2.227111   2.666355   3.545809   3.958452
    14  H    3.524206   4.217609   2.109371   4.210163   3.788450
    15  C    3.586582   3.055850   3.368292   4.663956   3.607657
    16  H    4.206422   3.526505   3.480034   5.108949   4.715421
    17  H    2.816166   3.417783   2.788931   3.766588   2.189467
    18  H    4.141098   4.683044   3.420616   5.081269   3.800794
    19  H    3.312553   2.794790   3.537243   4.367813   3.099839
    20  H    4.618356   4.133726   4.257619   5.703534   4.560567
                    6          7          8          9         10
     6  C    0.000000
     7  C    2.894388   0.000000
     8  H    2.159679   4.280134   0.000000
     9  H    2.179319   3.854981   1.749352   0.000000
    10  H    2.648169   2.120313   3.447740   3.961344   0.000000
    11  C    3.387381   1.379715   4.721072   3.767775   3.400888
    12  C    1.390618   2.915792   3.381351   2.752074   3.500954
    13  H    1.083481   3.511746   2.407959   3.039880   2.679435
    14  H    3.460952   1.087898   5.071562   4.797355   2.381173
    15  C    2.449517   3.015926   4.031446   2.805095   4.248377
    16  H    2.112659   3.365594   4.207690   3.800088   3.877037
    17  H    3.576224   2.150222   4.475390   3.293808   3.842269
    18  H    4.256274   2.138828   5.753804   4.720026   4.256679
    19  H    2.767522   3.346190   3.775898   2.224909   4.528752
    20  H    3.414216   3.640491   5.089563   3.827366   5.101198
                   11         12         13         14         15
    11  C    0.000000
    12  C    3.000754   0.000000
    13  H    4.259916   2.114173   0.000000
    14  H    2.109711   3.343407   3.846341   0.000000
    15  C    2.453467   1.375297   3.389501   3.602958   0.000000
    16  H    3.587422   1.085930   2.376609   3.454176   2.110454
    17  H    1.079732   3.333524   4.567867   3.080070   2.567408
    18  H    1.082426   3.602782   5.083775   2.423127   2.892880
    19  H    2.600222   2.143322   3.819245   4.159288   1.080098
    20  H    2.893097   2.133816   4.246986   4.027067   1.081573
                   16         17         18         19         20
    16  H    0.000000
    17  H    4.142080   0.000000
    18  H    3.975476   1.829953   0.000000
    19  H    3.076129   2.246270   3.178999   0.000000
    20  H    2.426051   3.125064   2.934295   1.828992   0.000000
 Symmetry turned off by external request.
 Stoichiometry    C8H12
 Framework group  C1[X(C8H12)]
 Deg. of freedom    54
 Full point group                 C1      NOp   1
 Rotational constants (GHZ):           2.4837886           2.3069297           1.5780948
 Standard basis: def2TZVP (5D, 7F)
 The following finite field(s) will be applied:
 An electric field of              0.0019  0.0018 -0.0070
   320 basis functions,   504 primitive gaussians,   360 cartesian basis functions
    30 alpha electrons       30 beta electrons
       nuclear repulsion energy       367.9020363986 Hartrees.
 NAtoms=   20 NActive=   20 NUniq=   20 SFac= 1.00D+00 NAtFMM=   60 NAOKFM=F Big=F
 Integral buffers will be    131072 words long.
 Raffenetti 2 integral format.
 Two-electron integral symmetry is turned off.
 One-electron integrals computed using PRISM.
   1 Symmetry operations used in ECPInt.
 ECPInt:  NShTT=    9316 NPrTT=   27240 LenC2=    9238 LenP2D=   22125.
 LDataN:  DoStor=T MaxTD1= 6 Len=  172
 NBasis=   320 RedAO= T EigKep=  2.63D-05  NBF=   320
 NBsUse=   320 1.00D-06 EigRej= -1.00D+00 NBFU=   320
 The nuclear repulsion energy is now       367.7947780856 hartrees.
 Initial guess from the checkpoint file:  "checkpoint.chk"
 B after Tr=     0.003432   -0.019277   -0.009157
         Rot=    0.999966    0.006820    0.001352   -0.004528 Ang=   0.95 deg.
 Requested convergence on RMS density matrix=1.00D-08 within 128 cycles.
 Requested convergence on MAX density matrix=1.00D-06.
 Requested convergence on             energy=1.00D-06.
 No special actions if energy rises.
 SCF Done:  E(RB3LYP) =  -312.083481995     A.U. after    9 cycles
            NFock=  9  Conv=0.58D-08     -V/T= 2.0056
   1 Symmetry operations used in ECPInt.
 ECPInt:  NShTT=    9316 NPrTT=   27240 LenC2=    9238 LenP2D=   22125.
 LDataN:  DoStor=T MaxTD1= 7 Len=  274
 Calling FoFJK, ICntrl=      2127 FMM=F ISym2X=0 I1Cent= 0 IOpClX= 0 NMat=1 NMatS=1 NMatT=0.
 -------------------------------------------------------------------
 Center     Atomic                   Forces (Hartrees/Bohr)
 Number     Number              X              Y              Z
 -------------------------------------------------------------------
      1        6          -0.000074427   -0.000273122    0.000014990
      2        6           0.000079612    0.000396103   -0.000010727
      3        6          -0.000006110   -0.000127785    0.000005268
      4        1          -0.000001770   -0.000002334    0.000001547
      5        1          -0.000000682    0.000000153    0.000000938
      6        6          -0.000004747   -0.000012369   -0.000003422
      7        6           0.000002136    0.000009784    0.000018165
      8        1          -0.000002223   -0.000001374    0.000000448
      9        1           0.000000057    0.000000710   -0.000003540
     10        1           0.000000257   -0.000001864    0.000000920
     11        6           0.000002228   -0.000003925   -0.000012590
     12        6           0.000011169    0.000018554   -0.000025367
     13        1          -0.000000997   -0.000001633    0.000000036
     14        1           0.000000585   -0.000000188   -0.000001816
     15        6          -0.000010912    0.000006742    0.000013910
     16        1           0.000000368   -0.000002528    0.000001823
     17        1          -0.000001013    0.000002842    0.000005738
     18        1           0.000001622    0.000000614    0.000003703
     19        1           0.000003148   -0.000008882   -0.000005918
     20        1           0.000001698    0.000000501   -0.000004107
 -------------------------------------------------------------------
 Cartesian Forces:  Max     0.000396103 RMS     0.000066160
 -----------------------------------------------------------------------------------------------
                       Internal Coordinate Forces (Hartree/Bohr or radian)
  Cent   Atom   N1       Length/X         N2         Alpha/Y        N3         Beta/Z          J
 -----------------------------------------------------------------------------------------------
      1  C 
      2  C        1  -0.000037(     1)
      3  C        1  -0.000005(     2)      2  -0.000069(    20)
      4  H        1   0.000002(     3)      2  -0.000005(    21)      3   0.000001(    38)     0
      5  H        1   0.000000(     4)      2  -0.000002(    22)      3  -0.000001(    39)     0
      6  C        2  -0.000005(     5)      1  -0.000091(    23)      3   0.000026(    40)     0
      7  C        3   0.000006(     6)      1   0.000008(    24)      2   0.000036(    41)     0
      8  H        2   0.000002(     7)      1  -0.000001(    25)      6  -0.000003(    42)     0
      9  H        2  -0.000001(     8)      1  -0.000007(    26)      6  -0.000001(    43)     0
     10  H        3   0.000002(     9)      1  -0.000002(    27)      7  -0.000002(    44)     0
     11  C        7  -0.000002(    10)      3   0.000012(    28)      1   0.000011(    45)     0
     12  C        6   0.000010(    11)      2  -0.000038(    29)      1  -0.000045(    46)     0
     13  H        6   0.000001(    12)      2  -0.000003(    30)     12   0.000000(    47)     0
     14  H        7   0.000001(    13)      3   0.000001(    31)     11   0.000003(    48)     0
     15  C       12  -0.000000(    14)      6  -0.000028(    32)      2   0.000002(    49)     0
     16  H       12   0.000001(    15)      6  -0.000005(    33)     15  -0.000003(    50)     0
     17  H       11   0.000002(    16)      7   0.000006(    34)      3   0.000002(    51)     0
     18  H       11   0.000001(    17)      7   0.000001(    35)     17  -0.000007(    52)     0
     19  H       15  -0.000004(    18)     12  -0.000014(    36)      6  -0.000006(    53)     0
     20  H       15   0.000000(    19)     12   0.000001(    37)     19   0.000008(    54)     0
 -----------------------------------------------------------------------------------------------
 Internal  Forces:  Max     0.000091043 RMS     0.000020089

 GradGradGradGradGradGradGradGradGradGradGradGradGradGradGradGradGradGrad
 Berny optimization.
 Search for a saddle point.
 Step number   2 out of a maximum of   64
 All quantities printed in internal units (Hartrees-Bohrs-Radians)
 Swapping is turned off.
 Update second derivatives using D2CorN and points    1    2
 ITU=  0  0
     Eigenvalues ---   -0.13488   0.00530   0.01409   0.02223   0.03550
     Eigenvalues ---    0.05971   0.06153   0.07139   0.07365   0.11551
     Eigenvalues ---    0.11760   0.11939   0.13685   0.14054   0.14506
     Eigenvalues ---    0.14605   0.16836   0.17030   0.17367   0.18593
     Eigenvalues ---    0.20151   0.22201   0.23316   0.24299   0.25429
     Eigenvalues ---    0.27331   0.28706   0.28886   0.29604   0.31284
     Eigenvalues ---    0.32696   0.32977   0.33223   0.33555   0.34177
     Eigenvalues ---    0.34958   0.35105   0.35377   0.35538   0.35766
     Eigenvalues ---    0.35898   0.36695   0.36914   0.38275   0.41865
     Eigenvalues ---    0.43317   0.44437   0.46986   0.50434   0.53500
     Eigenvalues ---    0.57347   0.75816   1.23416   2.39168
 Eigenvectors required to have negative eigenvalues:
                          D7        D12       D19       D17       D10
   1                    0.45170  -0.44571   0.24853  -0.24436  -0.22737
                          A3        A6        D13       R12       D18
   1                    0.22696   0.22605   0.22583  -0.20256   0.19658
 RFO step:  Lambda0=8.694567705D-10 Lambda=-7.94049620D-08.
 Linear search not attempted -- option 19 set.
 Variable       Old X    -DE/DX   Delta X   Delta X   Delta X     New X
                                 (Linear)    (Quad)   (Total)
    R2        2.90913  -0.00004   0.00000  -0.00006  -0.00006   2.90907
    R3        2.87975  -0.00000   0.00000  -0.00007  -0.00007   2.87968
    R4        2.06370   0.00000   0.00000   0.00002   0.00002   2.06372
    R5        2.06372   0.00000   0.00000  -0.00003  -0.00003   2.06369
    R6        2.87812  -0.00001   0.00000   0.00005   0.00005   2.87817
    R7        2.62947   0.00001   0.00000  -0.00003  -0.00003   2.62944
    R8        2.05987   0.00000   0.00000  -0.00001  -0.00001   2.05987
    R9        2.06136  -0.00000   0.00000   0.00002   0.00002   2.06138
   R10        2.04866   0.00000   0.00000  -0.00000  -0.00000   2.04865
   R11        2.60728  -0.00000   0.00000   0.00004   0.00004   2.60732
   R12        2.62789   0.00001   0.00000   0.00001   0.00001   2.62790
   R13        2.04748   0.00000   0.00000  -0.00000  -0.00000   2.04748
   R14        2.05583   0.00000   0.00000  -0.00000  -0.00000   2.05583
   R15        2.59893  -0.00000   0.00000  -0.00002  -0.00002   2.59892
   R16        2.05211   0.00000   0.00000   0.00000   0.00000   2.05211
   R17        2.04040   0.00000   0.00000  -0.00002  -0.00002   2.04038
   R18        2.04549   0.00000   0.00000   0.00001   0.00001   2.04550
   R19        2.04109  -0.00000   0.00000   0.00001   0.00001   2.04110
   R20        2.04388   0.00000   0.00000  -0.00001  -0.00001   2.04387
    A3        1.79047  -0.00007   0.00000  -0.00005  -0.00005   1.79042
    A4        1.96415  -0.00001   0.00000   0.00012   0.00012   1.96427
    A5        1.96343  -0.00000   0.00000  -0.00013  -0.00013   1.96331
    A6        1.78562  -0.00009   0.00000   0.00008   0.00008   1.78570
    A7        2.16258   0.00001   0.00000  -0.00006  -0.00006   2.16252
    A8        1.96461  -0.00000   0.00000  -0.00015  -0.00015   1.96446
    A9        1.97379  -0.00001   0.00000   0.00010   0.00010   1.97388
   A10        2.03320  -0.00000   0.00000   0.00002   0.00002   2.03322
   A11        2.18166   0.00001   0.00000  -0.00000  -0.00000   2.18166
   A12        2.16893  -0.00004   0.00000   0.00007   0.00007   2.16900
   A13        2.03122  -0.00000   0.00000   0.00000   0.00000   2.03123
   A14        2.02554   0.00000   0.00000   0.00001   0.00001   2.02554
   A15        2.17559  -0.00003   0.00000   0.00002   0.00002   2.17561
   A16        2.03429  -0.00000   0.00000  -0.00002  -0.00002   2.03427
   A17        2.11950   0.00001   0.00000   0.00009   0.00009   2.11959
   A18        2.09667   0.00000   0.00000  -0.00006  -0.00006   2.09661
   A19        2.11407  -0.00001   0.00000  -0.00012  -0.00012   2.11394
   A20        2.09612   0.00000   0.00000   0.00008   0.00008   2.09621
    D4        2.08364   0.00000   0.00000   0.00025   0.00025   2.08389
    D5       -2.09287  -0.00000   0.00000   0.00021   0.00021  -2.09266
    D6        0.04084   0.00003   0.00000   0.00215   0.00215   0.04299
    D7       -1.77587   0.00004   0.00000  -0.00155  -0.00155  -1.77741
    D8       -2.06767  -0.00000   0.00000   0.00021   0.00021  -2.06746
    D9        2.10391  -0.00000   0.00000   0.00022   0.00022   2.10413
   D10       -2.83296  -0.00000   0.00000  -0.00036  -0.00036  -2.83332
   D11        0.32558   0.00001   0.00000  -0.00055  -0.00055   0.32503
   D12        1.70686  -0.00004   0.00000  -0.00187  -0.00187   1.70499
   D13        2.81914   0.00000   0.00000   0.00002   0.00002   2.81917
   D14        2.85655   0.00000   0.00000   0.00007   0.00007   2.85662
   D15       -0.31460   0.00000   0.00000  -0.00011  -0.00011  -0.31472
   D16       -2.91685  -0.00000   0.00000  -0.00017  -0.00017  -2.91702
   D17       -0.45898   0.00000   0.00000  -0.00032  -0.00032  -0.45929
   D18       -2.79664  -0.00001   0.00000  -0.00003  -0.00003  -2.79667
   D19        0.42602  -0.00001   0.00000  -0.00056  -0.00056   0.42547
   D20        2.77359   0.00001   0.00000   0.00018   0.00018   2.77377
         Item               Value     Threshold  Converged?
 Maximum Force            0.000091     0.000450     YES
 RMS     Force            0.000020     0.000300     YES
 Maximum Displacement     0.002147     0.001800     NO 
 RMS     Displacement     0.000466     0.001200     YES
 Predicted change in Energy=-3.926775D-08
 GradGradGradGradGradGradGradGradGradGradGradGradGradGradGradGradGradGrad

 ---------------------------------------------------------------------------------------------------
                            Z-MATRIX (ANGSTROMS AND DEGREES)
   CD    Cent   Atom    N1       Length/X        N2       Alpha/Y        N3        Beta/Z          J
 ---------------------------------------------------------------------------------------------------
      1      1  C 
      2      2  C        1   1.539412(     1)
      3      3  C        1   1.523862(     2)      2  102.583(    20)
      4      4  H        1   1.092074(     3)      2  112.544(    21)      3  119.398(    38)      0
      5      5  H        1   1.092058(     4)      2  112.489(    22)      3 -119.900(    39)      0
      6      6  C        2   1.523063(     5)      1  102.313(    23)      3    2.463(    40)      0
      7      7  C        3   1.391440(     6)      1  123.903(    24)      2 -101.838(    41)      0
      8      8  H        2   1.090034(     7)      1  112.555(    25)      6 -118.457(    42)      0
      9      9  H        2   1.090836(     8)      1  113.095(    26)      6  120.558(    43)      0
     10     10  H        3   1.084101(     9)      1  116.495(    27)      7 -162.338(    44)      0
     11     11  C        7   1.379737(    10)      3  125.000(    28)      1   18.623(    45)      0
     12     12  C        6   1.390626(    11)      2  124.274(    29)      1   97.689(    46)      0
     13     13  H        6   1.083480(    12)      2  116.381(    30)     12  161.526(    47)      0
     14     14  H        7   1.087898(    13)      3  116.055(    31)     11  163.672(    48)      0
     15     15  C       12   1.375289(    14)      6  124.653(    32)      2  -18.032(    49)      0
     16     16  H       12   1.085931(    15)      6  116.555(    33)     15 -167.133(    50)      0
     17     17  H       11   1.079723(    16)      7  121.443(    34)      3  -26.316(    51)      0
     18     18  H       11   1.082430(    17)      7  120.127(    35)     17 -160.237(    52)      0
     19     19  H       15   1.080102(    18)     12  121.120(    36)      6   24.377(    53)      0
     20     20  H       15   1.081569(    19)     12  120.104(    37)     19  158.925(    54)      0
 ---------------------------------------------------------------------------------------------------
                         Z-Matrix orientation:                         
 ---------------------------------------------------------------------
 Center     Atomic      Atomic             Coordinates (Angstroms)
 Number     Number       Type             X           Y           Z
 ---------------------------------------------------------------------
      1          6           0        0.000000    0.000000    0.000000
      2          6           0        0.000000    0.000000    1.539412
      3          6           0        1.487259    0.000000   -0.331987
      4          1           0       -0.495109   -0.878740   -0.418700
      5          1           0       -0.502984    0.874703   -0.417723
      6          6           0        1.486653    0.063945    1.864212
      7          6           0        2.193129    1.130308   -0.732306
      8          1           0       -0.441196   -0.904824    1.957519
      9          1           0       -0.546797    0.841335    1.967304
     10          1           0        1.937833   -0.965233   -0.533443
     11          6           0        1.777256    2.431919   -0.541177
     12          6           0        2.169378    1.233175    2.181430
     13          1           0        1.958848   -0.870130    2.144329
     14          1           0        3.242590    0.977319   -0.974688
     15          6           0        1.714459    2.502424    1.910366
     16          1           0        3.208813    1.123687    2.476103
     17          1           0        0.730463    2.681669   -0.453702
     18          1           0        2.435874    3.254560   -0.788442
     19          1           0        0.660023    2.703936    1.791293
     20          1           0        2.330766    3.360551    2.141829
 ---------------------------------------------------------------------
                    Distance matrix (angstroms):
                    1          2          3          4          5
     1  C    0.000000
     2  C    1.539412   0.000000
     3  C    1.523862   2.390413   0.000000
     4  H    1.092074   2.202617   2.170134   0.000000
     5  H    1.092058   2.201926   2.175666   1.753460   0.000000
     6  C    2.385270   1.523063   2.197130   3.166658   3.134201
     7  C    2.573652   3.353821   1.391440   3.370644   2.726412
     8  H    2.201191   1.090034   3.127216   2.376974   2.968553
     9  H    2.208420   1.090836   3.183075   2.941827   2.385664
    10  H    2.229671   2.997266   1.084101   2.437181   3.058814
    11  C    3.060350   3.660837   2.458066   4.017351   2.763994
    12  C    3.314447   2.576646   2.881540   4.280228   3.745079
    13  H    3.031890   2.227136   2.666771   3.548393   3.958430
    14  H    3.524139   4.217848   2.109361   4.210043   3.788148
    15  C    3.584828   3.055994   3.367773   4.662511   3.603683
    16  H    4.205977   3.526548   3.480200   5.109661   4.713138
    17  H    2.816162   3.420151   2.789068   3.765602   2.188107
    18  H    4.140928   4.684501   3.420583   5.080506   3.799743
    19  H    3.309929   2.794699   3.536087   4.365085   3.094905
    20  H    4.616622   4.133845   4.257296   5.702058   4.556412
                    6          7          8          9         10
     6  C    0.000000
     7  C    2.894503   0.000000
     8  H    2.159588   4.279788   0.000000
     9  H    2.179422   3.857279   1.749377   0.000000
    10  H    2.647928   2.120380   3.445043   3.961163   0.000000
    11  C    3.387868   1.379737   4.722168   3.771427   3.400954
    12  C    1.390626   2.915648   3.381756   2.752634   3.501021
    13  H    1.083480   3.511648   2.407553   3.039524   2.679543
    14  H    3.460769   1.087898   5.070560   4.799298   2.381301
    15  C    2.449532   3.015882   4.032172   2.806374   4.248146
    16  H    2.112652   3.365345   4.207891   3.800422   3.877673
    17  H    3.577294   2.150287   4.477690   3.298408   3.842394
    18  H    4.256480   2.138814   5.754851   4.723783   4.256727
    19  H    2.767343   3.345934   3.776700   2.226359   4.527692
    20  H    3.414265   3.640547   5.090301   3.828482   5.101361
                   11         12         13         14         15
    11  C    0.000000
    12  C    3.000556   0.000000
    13  H    4.260100   2.114141   0.000000
    14  H    2.109739   3.343401   3.845690   0.000000
    15  C    2.453361   1.375289   3.389482   3.603425   0.000000
    16  H    3.586755   1.085931   2.376509   3.454060   2.110467
    17  H    1.079723   3.333546   4.568804   3.080100   2.566943
    18  H    1.082430   3.602382   5.083480   2.423078   2.893046
    19  H    2.600504   2.143244   3.819100   4.159509   1.080102
    20  H    2.892621   2.133856   4.246998   4.027890   1.081569
                   16         17         18         19         20
    16  H    0.000000
    17  H    4.141653   0.000000
    18  H    3.974332   1.829941   0.000000
    19  H    3.076115   2.246211   3.179917   0.000000
    20  H    2.426163   3.123881   2.934071   1.829043   0.000000
 Symmetry turned off by external request.
 Stoichiometry    C8H12
 Framework group  C1[X(C8H12)]
 Deg. of freedom    54
 Full point group                 C1      NOp   1
 Rotational constants (GHZ):           2.4841000           2.3067640           1.5781561
 Standard basis: def2TZVP (5D, 7F)
 The following finite field(s) will be applied:
 An electric field of              0.0019  0.0018 -0.0070
   320 basis functions,   504 primitive gaussians,   360 cartesian basis functions
    30 alpha electrons       30 beta electrons
       nuclear repulsion energy       367.9055828913 Hartrees.
 NAtoms=   20 NActive=   20 NUniq=   20 SFac= 1.00D+00 NAtFMM=   60 NAOKFM=F Big=F
 Integral buffers will be    131072 words long.
 Raffenetti 2 integral format.
 Two-electron integral symmetry is turned off.
 One-electron integrals computed using PRISM.
   1 Symmetry operations used in ECPInt.
 ECPInt:  NShTT=    9316 NPrTT=   27240 LenC2=    9238 LenP2D=   22125.
 LDataN:  DoStor=T MaxTD1= 6 Len=  172
 NBasis=   320 RedAO= T EigKep=  2.64D-05  NBF=   320
 NBsUse=   320 1.00D-06 EigRej= -1.00D+00 NBFU=   320
 The nuclear repulsion energy is now       367.7995730841 hartrees.
 Initial guess from the checkpoint file:  "checkpoint.chk"
 B after Tr=     0.000462   -0.002376   -0.000890
         Rot=    1.000000    0.000798    0.000175   -0.000549 Ang=   0.11 deg.
 Requested convergence on RMS density matrix=1.00D-08 within 128 cycles.
 Requested convergence on MAX density matrix=1.00D-06.
 Requested convergence on             energy=1.00D-06.
 No special actions if energy rises.
 SCF Done:  E(RB3LYP) =  -312.083482043     A.U. after    7 cycles
            NFock=  7  Conv=0.76D-08     -V/T= 2.0056
   1 Symmetry operations used in ECPInt.
 ECPInt:  NShTT=    9316 NPrTT=   27240 LenC2=    9238 LenP2D=   22125.
 LDataN:  DoStor=T MaxTD1= 7 Len=  274
 Calling FoFJK, ICntrl=      2127 FMM=F ISym2X=0 I1Cent= 0 IOpClX= 0 NMat=1 NMatS=1 NMatT=0.
 -------------------------------------------------------------------
 Center     Atomic                   Forces (Hartrees/Bohr)
 Number     Number              X              Y              Z
 -------------------------------------------------------------------
      1        6          -0.000083919   -0.000291206    0.000002505
      2        6           0.000084363    0.000407529   -0.000002290
      3        6          -0.000001326   -0.000117505    0.000001780
      4        1          -0.000000156   -0.000000399    0.000000281
      5        1          -0.000000246   -0.000000104    0.000000141
      6        6          -0.000000753   -0.000001021   -0.000001263
      7        6           0.000000902    0.000001826    0.000004788
      8        1          -0.000000299   -0.000000293    0.000000011
      9        1          -0.000000006    0.000000144   -0.000000596
     10        1          -0.000000041   -0.000000267   -0.000000058
     11        6           0.000000312   -0.000000856   -0.000001163
     12        6           0.000001517    0.000002737   -0.000003915
     13        1          -0.000000110   -0.000000203   -0.000000118
     14        1          -0.000000029    0.000000074   -0.000000335
     15        6          -0.000001243    0.000000697    0.000001594
     16        1          -0.000000037    0.000000052   -0.000000020
     17        1          -0.000000019    0.000000605    0.000000568
     18        1           0.000000142    0.000000169    0.000000580
     19        1           0.000000688   -0.000002076   -0.000001694
     20        1           0.000000258    0.000000096   -0.000000796
 -------------------------------------------------------------------
 Cartesian Forces:  Max     0.000407529 RMS     0.000068183
 -----------------------------------------------------------------------------------------------
                       Internal Coordinate Forces (Hartree/Bohr or radian)
  Cent   Atom   N1       Length/X         N2         Alpha/Y        N3         Beta/Z          J
 -----------------------------------------------------------------------------------------------
      1  C 
      2  C        1  -0.000009(     1)
      3  C        1  -0.000001(     2)      2  -0.000023(    20)
      4  H        1   0.000000(     3)      2  -0.000001(    21)      3  -0.000000(    38)     0
      5  H        1  -0.000000(     4)      2  -0.000000(    22)      3  -0.000001(    39)     0
      6  C        2  -0.000001(     5)      1  -0.000022(    23)      3   0.000005(    40)     0
      7  C        3   0.000001(     6)      1   0.000001(    24)      2   0.000012(    41)     0
      8  H        2   0.000000(     7)      1  -0.000000(    25)      6  -0.000000(    42)     0
      9  H        2  -0.000000(     8)      1  -0.000001(    26)      6  -0.000000(    43)     0
     10  H        3   0.000000(     9)      1  -0.000000(    27)      7   0.000000(    44)     0
     11  C        7  -0.000000(    10)      3   0.000001(    28)      1   0.000002(    45)     0
     12  C        6   0.000001(    11)      2  -0.000008(    29)      1  -0.000015(    46)     0
     13  H        6   0.000000(    12)      2  -0.000000(    30)     12   0.000000(    47)     0
     14  H        7   0.000000(    13)      3   0.000000(    31)     11   0.000001(    48)     0
     15  C       12  -0.000001(    14)      6  -0.000007(    32)      2  -0.000004(    49)     0
     16  H       12  -0.000000(    15)      6   0.000000(    33)     15   0.000000(    50)     0
     17  H       11   0.000000(    16)      7   0.000001(    34)      3  -0.000000(    51)     0
     18  H       11   0.000000(    17)      7   0.000000(    35)     17  -0.000001(    52)     0
     19  H       15  -0.000001(    18)     12  -0.000003(    36)      6  -0.000002(    53)     0
     20  H       15   0.000000(    19)     12   0.000000(    37)     19   0.000001(    54)     0
 -----------------------------------------------------------------------------------------------
 Internal  Forces:  Max     0.000022963 RMS     0.000005562

 GradGradGradGradGradGradGradGradGradGradGradGradGradGradGradGradGradGrad
 Berny optimization.
 Search for a saddle point.
 Step number   3 out of a maximum of   64
 All quantities printed in internal units (Hartrees-Bohrs-Radians)
 Swapping is turned off.
 Update second derivatives using D2CorN and points    1    2    3
 ITU=  0  0  0
     Eigenvalues ---   -0.13487   0.00399   0.01406   0.02223   0.03550
     Eigenvalues ---    0.05971   0.06154   0.07137   0.07365   0.11549
     Eigenvalues ---    0.11760   0.11938   0.13685   0.14054   0.14505
     Eigenvalues ---    0.14605   0.16836   0.17030   0.17367   0.18593
     Eigenvalues ---    0.20151   0.22201   0.23316   0.24299   0.25429
     Eigenvalues ---    0.27331   0.28706   0.28886   0.29604   0.31283
     Eigenvalues ---    0.32696   0.32977   0.33223   0.33554   0.34177
     Eigenvalues ---    0.34958   0.35105   0.35377   0.35538   0.35766
     Eigenvalues ---    0.35898   0.36695   0.36914   0.38275   0.41865
     Eigenvalues ---    0.43317   0.44437   0.46986   0.50434   0.53500
     Eigenvalues ---    0.57347   0.75814   1.23413   2.39160
 Eigenvectors required to have negative eigenvalues:
                          D7        D12       D19       D17       D10
   1                    0.45183  -0.44561   0.24860  -0.24439  -0.22731
                          A3        A6        D13       R12       D18
   1                    0.22691   0.22600   0.22579  -0.20254   0.19664
 RFO step:  Lambda0=4.467259895D-14 Lambda= 0.00000000D+00.
 Linear search not attempted -- option 19 set.
 Variable       Old X    -DE/DX   Delta X   Delta X   Delta X     New X
                                 (Linear)    (Quad)   (Total)
    R2        2.90907  -0.00001   0.00000  -0.00001  -0.00001   2.90905
    R3        2.87968  -0.00000   0.00000  -0.00002  -0.00002   2.87966
    R4        2.06372   0.00000   0.00000   0.00001   0.00001   2.06373
    R5        2.06369  -0.00000   0.00000  -0.00001  -0.00001   2.06368
    R6        2.87817  -0.00000   0.00000   0.00002   0.00002   2.87819
    R7        2.62944   0.00000   0.00000  -0.00001  -0.00001   2.62943
    R8        2.05987   0.00000   0.00000  -0.00000  -0.00000   2.05986
    R9        2.06138  -0.00000   0.00000   0.00001   0.00001   2.06139
   R10        2.04865   0.00000   0.00000  -0.00000  -0.00000   2.04865
   R11        2.60732  -0.00000   0.00000   0.00001   0.00001   2.60734
   R12        2.62790   0.00000   0.00000   0.00001   0.00001   2.62791
   R13        2.04748   0.00000   0.00000  -0.00000  -0.00000   2.04748
   R14        2.05583   0.00000   0.00000  -0.00000  -0.00000   2.05583
   R15        2.59892  -0.00000   0.00000  -0.00001  -0.00001   2.59891
   R16        2.05211  -0.00000   0.00000   0.00000   0.00000   2.05211
   R17        2.04038   0.00000   0.00000  -0.00001  -0.00001   2.04038
   R18        2.04550   0.00000   0.00000   0.00000   0.00000   2.04550
   R19        2.04110  -0.00000   0.00000   0.00000   0.00000   2.04110
   R20        2.04387   0.00000   0.00000  -0.00000  -0.00000   2.04387
    A3        1.79042  -0.00002   0.00000  -0.00004  -0.00004   1.79037
    A4        1.96427  -0.00000   0.00000   0.00005   0.00005   1.96432
    A5        1.96331  -0.00000   0.00000  -0.00004  -0.00004   1.96327
    A6        1.78570  -0.00002   0.00000   0.00003   0.00003   1.78573
    A7        2.16252   0.00000   0.00000  -0.00002  -0.00002   2.16250
    A8        1.96446  -0.00000   0.00000  -0.00006  -0.00006   1.96440
    A9        1.97388  -0.00000   0.00000   0.00004   0.00004   1.97392
   A10        2.03322  -0.00000   0.00000   0.00000   0.00000   2.03323
   A11        2.18166   0.00000   0.00000  -0.00001  -0.00001   2.18165
   A12        2.16900  -0.00001   0.00000   0.00003   0.00003   2.16902
   A13        2.03123  -0.00000   0.00000  -0.00000  -0.00000   2.03122
   A14        2.02554   0.00000   0.00000   0.00000   0.00000   2.02554
   A15        2.17561  -0.00001   0.00000   0.00001   0.00001   2.17562
   A16        2.03427   0.00000   0.00000  -0.00000  -0.00000   2.03426
   A17        2.11959   0.00000   0.00000   0.00002   0.00002   2.11961
   A18        2.09661   0.00000   0.00000  -0.00002  -0.00002   2.09659
   A19        2.11394  -0.00000   0.00000  -0.00004  -0.00004   2.11390
   A20        2.09621   0.00000   0.00000   0.00003   0.00003   2.09623
    D4        2.08389  -0.00000   0.00000   0.00008   0.00008   2.08397
    D5       -2.09266  -0.00000   0.00000   0.00008   0.00008  -2.09258
    D6        0.04299   0.00000   0.00000   0.00076   0.00076   0.04374
    D7       -1.77741   0.00001   0.00000  -0.00056  -0.00056  -1.77797
    D8       -2.06746  -0.00000   0.00000   0.00008   0.00008  -2.06738
    D9        2.10413  -0.00000   0.00000   0.00008   0.00008   2.10421
   D10       -2.83332   0.00000   0.00000  -0.00010  -0.00010  -2.83342
   D11        0.32503   0.00000   0.00000  -0.00017  -0.00017   0.32486
   D12        1.70499  -0.00002   0.00000  -0.00062  -0.00062   1.70437
   D13        2.81917   0.00000   0.00000  -0.00004  -0.00004   2.81913
   D14        2.85662   0.00000   0.00000   0.00001   0.00001   2.85663
   D15       -0.31472  -0.00000   0.00000  -0.00011  -0.00011  -0.31483
   D16       -2.91702   0.00000   0.00000  -0.00002  -0.00002  -2.91704
   D17       -0.45929  -0.00000   0.00000  -0.00014  -0.00014  -0.45943
   D18       -2.79667  -0.00000   0.00000   0.00002   0.00002  -2.79665
   D19        0.42547  -0.00000   0.00000  -0.00016  -0.00016   0.42531
   D20        2.77377   0.00000   0.00000   0.00005   0.00005   2.77382
         Item               Value     Threshold  Converged?
 Maximum Force            0.000023     0.000450     YES
 RMS     Force            0.000006     0.000300     YES
 Maximum Displacement     0.000757     0.001800     YES
 RMS     Displacement     0.000162     0.001200     YES
 Predicted change in Energy=-3.346617D-09
 Optimization completed.
    -- Stationary point found.
                       ----------------------------
                       !   Optimized Parameters   !
                       ! (Angstroms and Degrees)  !
 ----------------------                            ----------------------
 !      Name          Value   Derivative information (Atomic Units)     !
 ------------------------------------------------------------------------
 !       R2          1.5394   -DE/DX =    0.0                           !
 !       R3          1.5239   -DE/DX =    0.0                           !
 !       R4          1.0921   -DE/DX =    0.0                           !
 !       R5          1.0921   -DE/DX =    0.0                           !
 !       R6          1.5231   -DE/DX =    0.0                           !
 !       R7          1.3914   -DE/DX =    0.0                           !
 !       R8          1.09     -DE/DX =    0.0                           !
 !       R9          1.0908   -DE/DX =    0.0                           !
 !       R10         1.0841   -DE/DX =    0.0                           !
 !       R11         1.3797   -DE/DX =    0.0                           !
 !       R12         1.3906   -DE/DX =    0.0                           !
 !       R13         1.0835   -DE/DX =    0.0                           !
 !       R14         1.0879   -DE/DX =    0.0                           !
 !       R15         1.3753   -DE/DX =    0.0                           !
 !       R16         1.0859   -DE/DX =    0.0                           !
 !       R17         1.0797   -DE/DX =    0.0                           !
 !       R18         1.0824   -DE/DX =    0.0                           !
 !       R19         1.0801   -DE/DX =    0.0                           !
 !       R20         1.0816   -DE/DX =    0.0                           !
 !       A3        102.5833   -DE/DX =    0.0                           !
 !       A4        112.5444   -DE/DX =    0.0                           !
 !       A5        112.4893   -DE/DX =    0.0                           !
 !       A6        102.3131   -DE/DX =    0.0                           !
 !       A7        123.903    -DE/DX =    0.0                           !
 !       A8        112.5551   -DE/DX =    0.0                           !
 !       A9        113.0952   -DE/DX =    0.0                           !
 !       A10       116.4951   -DE/DX =    0.0                           !
 !       A11       124.9997   -DE/DX =    0.0                           !
 !       A12       124.2744   -DE/DX =    0.0                           !
 !       A13       116.3807   -DE/DX =    0.0                           !
 !       A14       116.0551   -DE/DX =    0.0                           !
 !       A15       124.6534   -DE/DX =    0.0                           !
 !       A16       116.5548   -DE/DX =    0.0                           !
 !       A17       121.4434   -DE/DX =    0.0                           !
 !       A18       120.1269   -DE/DX =    0.0                           !
 !       A19       121.1199   -DE/DX =    0.0                           !
 !       A20       120.1037   -DE/DX =    0.0                           !
 !       D4        119.3982   -DE/DX =    0.0                           !
 !       D5       -119.9004   -DE/DX =    0.0                           !
 !       D6          2.4629   -DE/DX =    0.0                           !
 !       D7       -101.8383   -DE/DX =    0.0                           !
 !       D8       -118.457    -DE/DX =    0.0                           !
 !       D9        120.5575   -DE/DX =    0.0                           !
 !       D10      -162.3375   -DE/DX =    0.0                           !
 !       D11        18.623    -DE/DX =    0.0                           !
 !       D12        97.6888   -DE/DX =    0.0                           !
 !       D13       161.5264   -DE/DX =    0.0                           !
 !       D14       163.6724   -DE/DX =    0.0                           !
 !       D15       -18.0319   -DE/DX =    0.0                           !
 !       D16      -167.1329   -DE/DX =    0.0                           !
 !       D17       -26.3155   -DE/DX =    0.0                           !
 !       D18      -160.2375   -DE/DX =    0.0                           !
 !       D19        24.3774   -DE/DX =    0.0                           !
 !       D20       158.9254   -DE/DX =    0.0                           !
 ------------------------------------------------------------------------
 GradGradGradGradGradGradGradGradGradGradGradGradGradGradGradGradGradGrad

 ---------------------------------------------------------------------------------------------------
                            Z-MATRIX (ANGSTROMS AND DEGREES)
   CD    Cent   Atom    N1       Length/X        N2       Alpha/Y        N3        Beta/Z          J
 ---------------------------------------------------------------------------------------------------
      1      1  C 
      2      2  C        1   1.539412(     1)
      3      3  C        1   1.523862(     2)      2  102.583(    20)
      4      4  H        1   1.092074(     3)      2  112.544(    21)      3  119.398(    38)      0
      5      5  H        1   1.092058(     4)      2  112.489(    22)      3 -119.900(    39)      0
      6      6  C        2   1.523063(     5)      1  102.313(    23)      3    2.463(    40)      0
      7      7  C        3   1.391440(     6)      1  123.903(    24)      2 -101.838(    41)      0
      8      8  H        2   1.090034(     7)      1  112.555(    25)      6 -118.457(    42)      0
      9      9  H        2   1.090836(     8)      1  113.095(    26)      6  120.558(    43)      0
     10     10  H        3   1.084101(     9)      1  116.495(    27)      7 -162.338(    44)      0
     11     11  C        7   1.379737(    10)      3  125.000(    28)      1   18.623(    45)      0
     12     12  C        6   1.390626(    11)      2  124.274(    29)      1   97.689(    46)      0
     13     13  H        6   1.083480(    12)      2  116.381(    30)     12  161.526(    47)      0
     14     14  H        7   1.087898(    13)      3  116.055(    31)     11  163.672(    48)      0
     15     15  C       12   1.375289(    14)      6  124.653(    32)      2  -18.032(    49)      0
     16     16  H       12   1.085931(    15)      6  116.555(    33)     15 -167.133(    50)      0
     17     17  H       11   1.079723(    16)      7  121.443(    34)      3  -26.316(    51)      0
     18     18  H       11   1.082430(    17)      7  120.127(    35)     17 -160.237(    52)      0
     19     19  H       15   1.080102(    18)     12  121.120(    36)      6   24.377(    53)      0
     20     20  H       15   1.081569(    19)     12  120.104(    37)     19  158.925(    54)      0
 ---------------------------------------------------------------------------------------------------
                         Z-Matrix orientation:                         
 ---------------------------------------------------------------------
 Center     Atomic      Atomic             Coordinates (Angstroms)
 Number     Number       Type             X           Y           Z
 ---------------------------------------------------------------------
      1          6           0        0.000000    0.000000    0.000000
      2          6           0        0.000000    0.000000    1.539412
      3          6           0        1.487259    0.000000   -0.331987
      4          1           0       -0.495109   -0.878740   -0.418700
      5          1           0       -0.502984    0.874703   -0.417723
      6          6           0        1.486653    0.063945    1.864212
      7          6           0        2.193129    1.130308   -0.732306
      8          1           0       -0.441196   -0.904824    1.957519
      9          1           0       -0.546797    0.841335    1.967304
     10          1           0        1.937833   -0.965233   -0.533443
     11          6           0        1.777256    2.431919   -0.541177
     12          6           0        2.169378    1.233175    2.181430
     13          1           0        1.958848   -0.870130    2.144329
     14          1           0        3.242590    0.977319   -0.974688
     15          6           0        1.714459    2.502424    1.910366
     16          1           0        3.208813    1.123687    2.476103
     17          1           0        0.730463    2.681669   -0.453702
     18          1           0        2.435874    3.254560   -0.788442
     19          1           0        0.660023    2.703936    1.791293
     20          1           0        2.330766    3.360551    2.141829
 ---------------------------------------------------------------------
                    Distance matrix (angstroms):
                    1          2          3          4          5
     1  C    0.000000
     2  C    1.539412   0.000000
     3  C    1.523862   2.390413   0.000000
[...]
 1272,0.19695597,0.00052990,0.00318142,-0.00134836,-0.08873685,-0.08613
 854,0.03996285,-0.00107747,0.00031896,0.00178939,0.00107921,0.00008164
 ,0.00019583,-0.00009256,0.00023853,-0.00122246,-0.01481543,-0.03037788
 ,0.00869326,0.00024655,0.00113262,-0.00024649,0.09746080,0.00208826,0.
 00164745,-0.00194603,-0.08793154,-0.23602326,0.08334163,-0.00011025,-0
 .00013686,-0.00086692,0.00008440,0.00171258,-0.00001172,-0.00021749,0.
 00092142,0.00004105,0.00090808,0.00041852,-0.00028426,0.00019445,-0.00
 002333,0.00014471,0.09570091,0.25094820,0.01023816,0.02627921,-0.01305
 223,0.03986570,0.08282212,-0.08328195,-0.00027039,0.00042987,-0.002718
 79,-0.00021922,0.00011065,0.00250149,0.00096237,0.00031944,-0.00424886
 ,-0.00352364,-0.00950249,0.00330995,0.00092512,-0.00064600,0.00014002,
 -0.04079802,-0.08934577,0.09185422,0.00116910,-0.00298261,-0.00126515,
 -0.11116267,0.09928796,0.04916438,-0.00129586,-0.00131543,0.00167010,-
 0.00016998,-0.00031413,-0.00105533,0.00106037,-0.00009417,0.00016567,-
 0.01627160,0.02606684,0.00789479,0.00023040,0.00101105,-0.00015580,0.0
 0764508,-0.01009445,-0.00557957,0.12021699,-0.00251314,0.00094598,0.00
 241032,0.09985389,-0.20819194,-0.07862712,0.00030635,-0.00000444,0.001
 22273,0.00015790,0.00075247,-0.00030675,-0.00009418,0.00166370,-0.0000
 0623,0.00098950,0.00261408,0.00201489,-0.00019018,0.00006185,-0.000132
 74,0.01378258,-0.02123312,-0.01035980,-0.10973755,0.22378388,0.0136121
 6,-0.02437693,-0.01252374,0.04928643,-0.07806583,-0.08440302,0.0001292
 8,0.00085976,-0.00366326,0.00081926,-0.00033252,-0.00375300,-0.0000763
 7,-0.00002833,0.00259697,-0.00367830,0.00944613,0.00325994,0.00057587,
 -0.00165514,-0.00018012,-0.00669575,0.00926336,0.00548631,-0.05221811,
 0.08436114,0.09271055,-0.01061915,0.02523527,0.00381874,-0.00131892,0.
 00010107,-0.00049071,-0.10081224,0.10337331,0.02980199,0.00173630,-0.0
 0015101,-0.00060228,-0.00487995,0.00013661,0.00210715,-0.00022817,-0.0
 0301756,-0.00254313,0.00784584,-0.01375661,-0.00376002,-0.00001434,0.0
 0002052,0.00045946,0.00010512,-0.00008698,0.00042749,0.10576029,-0.002
 62478,0.00270809,0.00104946,0.00004559,-0.00012475,-0.00007286,0.10154
 679,-0.27430643,-0.04352855,0.00042365,0.00128541,-0.00001324,-0.00068
 289,0.00082771,-0.00008545,0.00018742,-0.00019980,0.00039027,0.0127468
 3,-0.02089649,-0.00674517,0.00002976,0.00002343,-0.00001620,-0.0000126
 7,-0.00001816,-0.00003209,-0.10757629,0.29176034,0.00116106,-0.0036817
 6,0.00104066,0.00001174,0.00096660,0.00000260,0.02886088,-0.05422274,-
 0.03630924,0.00028588,0.00051590,0.00119865,-0.00058994,0.00100996,-0.
 00087499,0.00062221,-0.00858941,-0.00710532,-0.00374271,0.01828466,0.0
 0387985,0.00031311,0.00000294,-0.00021629,-0.00006878,-0.00007469,0.00
 007413,-0.03068498,0.04678856,0.03761487,0.00171497,0.00072289,-0.0022
 9677,0.00314215,0.00000549,0.00144789,0.01638140,-0.00764656,-0.013753
 93,0.00026739,0.00016118,0.00026258,-0.00030100,-0.00126871,-0.0003446
 2,0.00072767,0.00224493,0.00934755,-0.14091633,0.07262720,0.02648177,0
 .00027497,-0.00001461,-0.00024247,0.00014867,0.00014247,-0.00012500,-0
 .00013750,-0.00417916,0.00413556,0.62856650,-0.00363675,-0.00027894,-0
 .00026119,-0.00503071,0.00089355,-0.00215505,-0.00624331,-0.06196210,0
 .03777723,-0.00002663,-0.00028685,-0.00022946,-0.00093018,-0.00030949,
 -0.00008162,0.00167557,-0.01775356,-0.03122418,0.10256160,-0.32856032,
 -0.03762887,-0.00062661,0.00011879,0.00005156,-0.00093515,-0.00011535,
 0.00057284,-0.00354590,-0.00186440,-0.00216084,-0.02214168,0.69111782,
 -0.00343747,0.00088403,-0.00137915,-0.00425433,0.00027667,-0.00137885,
 -0.01006344,-0.01529938,0.03453462,-0.00072628,0.00033272,-0.00010037,
 -0.00113583,-0.00043796,-0.00032757,-0.00719796,-0.02162318,-0.0321947
 1,0.02970554,0.00857471,-0.05125924,-0.00031488,-0.00000217,0.00021092
 ,-0.00023921,-0.00022489,0.00062912,0.00108282,0.00194004,0.00128505,-
 0.09491098,-0.04277720,0.08399921,-0.00211857,-0.00104698,0.00044579,-
 0.01342481,-0.02589077,-0.01059643,-0.00196204,0.00443352,-0.00345604,
 0.00028223,0.00013623,-0.00104770,0.00012591,-0.00006599,-0.00048052,-
 0.17411320,-0.11836223,-0.04007447,0.00492406,-0.00453672,0.00406598,-
 0.00440401,-0.00016449,-0.00151041,0.00200958,-0.00094088,-0.00006292,
 0.00077026,-0.00004356,0.00134269,-0.00135277,0.00080483,0.00533879,0.
 62997920,0.01105768,-0.00033469,-0.00428375,0.00381956,0.00690714,0.00
 023678,-0.00205338,0.02107245,-0.06777957,0.00141338,-0.00000201,0.000
 66373,0.00100971,-0.00007099,0.00115916,-0.09640127,-0.25749581,0.0137
 5413,-0.00613987,-0.05492179,0.00241773,0.00322987,0.00030582,-0.00035
 633,0.00166794,-0.00043134,-0.00091365,0.00176329,0.00019132,0.0046363
 4,-0.00754588,0.02647038,0.05192525,-0.01462160,0.68476769,0.00053631,
 0.00067226,-0.00074038,-0.00183545,-0.00393196,0.00119362,-0.00175810,
 -0.00174347,-0.01454997,0.00018598,-0.00006636,0.00017723,0.00004664,0
 .00003079,-0.00022621,-0.04537936,-0.04920059,-0.06235091,-0.00289105,
 -0.00063566,-0.01262707,0.00028988,0.00026942,-0.00097861,-0.00019231,
 0.00043854,0.00101260,-0.00019372,0.00002226,-0.00042656,-0.00072840,-
 0.00069838,-0.01114559,0.15745843,-0.01344579,0.20834644,-0.00173086,0
 .00011388,0.00030726,-0.01148971,0.02376748,-0.00605920,-0.00029546,-0
 .00285961,0.00284068,-0.00001416,0.00001034,-0.00051595,0.00008655,-0.
 00003349,-0.00045132,-0.10665854,0.10577100,-0.03846348,0.00089430,0.0
 0165379,0.00003579,0.00167668,0.00008722,0.00033344,-0.00439395,-0.000
 11856,-0.00206249,0.00038570,-0.00010336,-0.00070874,0.00002255,-0.001
 28511,-0.00103564,0.00825841,-0.01313693,0.00406888,0.11208069,-0.0000
 6329,-0.00010655,0.00003748,-0.00338919,0.00394366,-0.00131480,0.00013
 554,0.00061031,-0.00097501,-0.00001635,-0.00000041,-0.00002695,-0.0000
 1856,0.00001631,-0.00000217,0.10373072,-0.26307100,0.06197029,-0.00022
 852,-0.00037571,-0.00000104,0.00026045,0.00126903,0.00008726,-0.000817
 96,0.00060866,-0.00010744,0.00000619,0.00065273,0.00007026,-0.00003537
 ,0.00044942,0.00003188,0.01331987,-0.02162379,0.00877028,-0.10912178,0
 .27993232,-0.00015614,-0.00102607,0.00018550,-0.00164646,0.00332754,0.
 00162925,-0.00057315,0.00767910,-0.00712346,-0.00032865,-0.00005889,-0
 .00020751,0.00008031,0.00011716,0.00013869,-0.03863613,0.07268371,-0.0
 5029382,-0.00137136,-0.00398047,0.00008003,-0.00014754,-0.00052297,0.0
 0129374,0.00061204,-0.00092733,-0.00088424,0.00065674,-0.00000217,0.00
 094754,-0.00029037,0.00278605,0.00172294,0.00306451,-0.01486882,0.0064
 7880,0.04101409,-0.06636188,0.04831378,0.00210696,-0.00279275,0.001734
 94,-0.00050898,0.00000096,0.00027539,-0.01710713,0.00361736,0.00316246
 ,-0.00053380,-0.00013179,0.00030945,0.00048244,0.00028591,-0.00016047,
 -0.00017561,0.00003856,0.00031263,-0.29789050,0.03531946,0.06243792,0.
 00001932,0.00001078,0.00018543,-0.00000396,-0.00002379,0.00015371,0.00
 093034,-0.00038062,-0.00134291,-0.00917285,0.00090232,0.00238144,-0.00
 029312,-0.00027434,-0.00000865,-0.00001178,-0.00004272,0.00007288,0.31
 966462,-0.00003584,-0.00335037,0.00177293,-0.00021807,-0.00000935,0.00
 007148,-0.02822015,0.00456277,0.00496823,-0.00074977,-0.00010007,0.000
 22073,0.00015886,0.00013324,-0.00017495,-0.00017131,0.00057962,0.00082
 378,0.03531189,-0.06171405,-0.00768634,0.00007471,0.00002434,0.0001257
 4,0.00005436,-0.00000961,0.00017793,-0.00013322,0.00097694,-0.00070207
 ,0.03189149,-0.00358547,-0.00536492,0.00009219,-0.00057789,0.00002391,
 0.00006542,-0.00003719,-0.00005913,-0.03874024,0.06645439,0.00194235,0
 .00212121,0.00648261,-0.00124802,-0.00002875,0.00116384,0.01150007,0.0
 0064993,-0.00146320,0.00124872,-0.00017713,-0.00040203,0.00031332,0.00
 013254,-0.00011866,-0.00081685,0.00045107,0.00118437,0.05513056,-0.008
 85610,-0.05139144,-0.00009233,0.00004293,0.00024594,-0.00007239,-0.000
 06238,0.00020588,-0.00168219,0.00017993,-0.00385898,0.00518042,-0.0006
 2252,0.00272080,-0.00066481,-0.00037463,0.00050066,0.00002025,-0.00003
 466,-0.00020162,-0.06987204,0.00739608,0.04284204,0.00299504,0.0000653
 9,-0.00139495,0.00173280,0.00070001,0.00216704,0.00066323,0.00114838,-
 0.00950530,0.00027435,0.00007779,0.00022681,0.00004259,-0.00003677,-0.
 00014196,0.01649202,-0.00582888,0.01491414,-0.00137865,-0.00652620,0.0
 0118180,0.00005017,0.00021916,-0.00020884,-0.00037171,-0.00122169,0.00
 031624,0.00000431,0.00000750,0.00030545,-0.00981636,0.00371123,0.00635
 103,-0.14910475,0.08236762,-0.03538966,-0.00003276,-0.00433048,-0.0037
 7327,-0.00010709,-0.00017694,-0.00049849,0.62932944,-0.00380870,0.0007
 1581,0.00226317,-0.00373730,-0.00007781,0.00066898,0.00169362,-0.01456
 646,0.02707536,-0.00064148,0.00012396,0.00004470,-0.00082889,-0.000012
 66,-0.00024756,-0.00477561,-0.06233158,-0.02973494,0.00094116,0.022395
 05,0.00024289,0.00036301,-0.00031060,0.00015119,-0.00043788,-0.0002115
 9,0.00012951,-0.00110873,0.00003386,-0.00281692,0.00383366,-0.02008879
 ,-0.02159740,0.10952459,-0.32776080,0.05643784,-0.00344047,-0.00233537
 ,0.00089249,0.00031289,0.00031580,-0.00014937,-0.02083779,0.70462251,0
 .00350511,-0.00046422,-0.00185718,0.00461915,-0.00108165,-0.00207371,0
 .00594872,0.02106411,-0.03383489,0.00058722,-0.00007252,0.00004937,0.0
 0051939,0.00021934,0.00042638,0.01160392,0.02085719,0.03855935,-0.0050
 8783,-0.04976116,-0.01010261,0.00053076,-0.00015981,-0.00025335,0.0011
 5415,0.00039891,-0.00060379,0.00132388,0.00018288,0.00275978,-0.008497
 60,0.02345264,0.04723167,-0.03929307,0.00538879,-0.06100373,-0.0011920
 2,-0.00177816,0.00213559,-0.00029058,-0.00049607,0.00031771,0.11003571
 ,0.01643120,0.09925658,-0.00050605,-0.00004803,-0.00034199,0.00216542,
 -0.00245032,-0.00178893,-0.00021735,-0.00001627,-0.00046469,0.00000733
 ,-0.00000618,-0.00020106,-0.00001520,-0.00000519,-0.00011804,-0.015010
 58,0.00241132,-0.00371588,-0.00035714,-0.00025686,-0.00002103,-0.00040
 833,-0.00011054,-0.00030619,0.00047028,0.00029633,0.00011567,-0.000001
 29,-0.00004895,-0.00004290,-0.00013662,0.00032779,0.00006970,-0.301117
 64,0.02533583,-0.07544373,0.00073431,-0.00006010,0.00148004,0.00024452
 ,-0.00001782,0.00005654,-0.00872188,0.00081875,-0.00305001,0.32075759,
 -0.00010486,-0.00003310,0.00005947,-0.00016231,-0.00372178,-0.00096816
 ,-0.00004683,0.00044810,-0.00057601,0.00008249,0.00000790,-0.00012951,
 0.00003262,0.00000649,-0.00016668,-0.02957259,0.00325277,-0.00650257,0
 .00013257,-0.00041204,0.00006104,-0.00091669,-0.00009993,-0.00029858,0
 .00016012,0.00012544,0.00014473,0.00004675,-0.00002893,0.00003265,-0.0
 0018564,0.00032217,0.00044138,0.02588805,-0.05958136,0.00784910,-0.000
 10700,0.00095554,0.00025659,-0.00001332,0.00009757,-0.00004977,0.03137
 501,-0.00244012,0.00689541,-0.02764913,0.06461637,0.00128442,0.0001915
 5,0.00114520,-0.00156683,-0.00129775,0.00644319,0.00076062,-0.00019243
 ,0.00082094,0.00010710,-0.00002732,0.00029742,0.00007762,0.00002048,0.
 00017048,-0.00883611,-0.00051925,-0.00001582,0.00061168,0.00025632,0.0
 0046703,-0.00106146,0.00016000,-0.00032294,-0.00040142,-0.00020381,-0.
 00015365,-0.00000402,0.00001031,-0.00016379,0.00053096,0.00003749,0.00
 028151,-0.07152771,0.00875291,-0.06092567,0.00178720,-0.00055048,-0.00
 370665,0.00000473,-0.00001710,-0.00061737,-0.00729143,0.00080540,0.002
 71155,0.08473513,-0.00848036,0.05099452,0.00024543,-0.00135300,-0.0006
 6730,0.00027320,0.00032495,-0.00010866,-0.00077382,-0.00106521,-0.0002
 3452,0.00026059,-0.00033881,0.00016763,-0.00009226,-0.00092411,0.00024
 586,-0.00017747,0.00066258,0.00069547,-0.00655297,0.00117828,0.0010601
 0,0.00003451,-0.00005479,-0.00010205,0.00001394,0.00009925,-0.00000897
 ,0.00002687,0.00016759,-0.00026931,-0.32503825,0.06401066,0.03065367,0
 .00041573,-0.00081553,0.00016414,0.00003517,-0.00005039,-0.00006625,0.
 00117286,0.00129511,0.00075874,-0.00183317,0.00028933,-0.00020262,0.00
 012996,-0.00010900,-0.00020453,0.34314308,0.00045450,-0.00099840,0.000
 83125,-0.00011788,0.00027303,0.00018052,-0.00009920,0.00088571,-0.0001
 7449,-0.00012290,0.00035546,-0.00017521,-0.00150270,-0.00060704,-0.000
 19010,0.00022151,-0.00031626,-0.00034807,0.03047083,-0.00018692,-0.002
 40692,-0.00007121,0.00003828,-0.00009809,-0.00010182,-0.00002601,0.000
 14548,-0.00042902,0.00017856,-0.00049119,0.05977847,-0.07081234,-0.004
 26869,-0.00005871,0.00033937,0.00009056,-0.00007743,0.00001749,0.00002
 233,0.00167293,-0.00489085,-0.00044029,0.00024954,-0.00032626,-0.00001
 638,-0.00004472,-0.00003592,0.00003529,-0.06824608,0.06853388,0.000203
 49,0.00063769,-0.00089259,0.00084810,0.00023236,0.00016745,0.00007374,
 0.00363835,-0.00833872,0.00010647,0.00012226,0.00008510,-0.00022380,-0
 .00044097,0.00047814,0.00102210,0.00384989,0.00443839,0.00573071,-0.01
 147282,0.00134706,0.00014606,-0.00007282,-0.00012065,0.00036081,-0.000
 08150,-0.00024705,0.00019067,-0.00024835,0.00028740,0.02269336,0.00414
 332,-0.02114438,-0.00024030,-0.00672431,0.00049283,0.00024948,-0.00009
 308,-0.00034779,0.00195912,-0.00154352,0.00686691,-0.00533275,0.003945
 27,-0.01164540,-0.00004042,-0.00023889,0.00020742,-0.03346646,0.006143
 76,0.02932492,-0.00028843,0.00013658,-0.00030492,0.00004793,-0.0000703
 6,-0.00009826,0.00015661,0.00268884,0.00021765,0.00021522,-0.00031364,
 0.00013035,0.00058573,-0.00021097,0.00025903,-0.00018021,0.00072916,0.
 00114071,0.00769647,0.00890137,-0.00319736,0.00005525,-0.00003807,0.00
 005408,0.00008624,0.00003585,-0.00008614,0.00034109,0.00053340,0.00026
 721,-0.16262519,-0.13172686,0.04605401,0.00029544,-0.00118392,-0.00010
 460,0.00006939,-0.00001086,-0.00006140,0.00106913,-0.00036719,-0.00142
 558,-0.00014672,0.00164827,-0.00141572,0.00000047,-0.00001541,-0.00002
 153,-0.01309491,-0.02166381,0.00651021,0.16526749,0.00066877,0.0000395
 6,0.00004371,0.00001876,-0.00001271,-0.00004783,0.00331141,-0.00366063
 ,-0.00178851,-0.00011944,0.00006046,-0.00002937,-0.00008496,0.00025794
 ,-0.00008666,0.00015386,0.00008190,-0.00027231,-0.02075360,-0.01843214
 ,0.00929354,-0.00001412,-0.00000125,0.00000957,-0.00002886,0.00000955,
 0.00004550,-0.00079260,-0.00122821,0.00042104,-0.12898030,-0.21343561,
 0.04733107,-0.00004430,0.00000280,0.00006047,-0.00001960,0.00001088,-0
 .00001722,0.00025270,0.00118340,-0.00017814,0.00039739,0.00010645,-0.0
 0032943,0.00003390,-0.00002054,-0.00001394,0.00493231,0.00673984,-0.00
 199026,0.14101380,0.22788691,0.00052954,-0.00041483,0.00030842,-0.0001
 7678,-0.00002733,-0.00002920,0.00270790,0.00118568,0.00336929,0.000015
 68,-0.00016038,0.00005402,0.00019242,0.00049300,0.00001011,-0.00035888
 ,0.00097892,0.00146772,-0.00422488,-0.00904314,0.00360660,0.00006145,-
 0.00003261,0.00002060,0.00004187,0.00006748,0.00000317,0.00034684,0.00
 015498,0.00043754,0.04764835,0.05604814,-0.04068619,0.00034964,-0.0014
 6357,-0.00020567,0.00001467,-0.00001237,-0.00014095,-0.00143722,0.0002
 8666,-0.00453972,0.00250104,0.00331417,-0.00233728,-0.00006710,0.00004
 415,-0.00007541,0.00058677,0.00143182,0.00027501,-0.04832870,-0.052659
 30,0.03867025,0.00015881,0.00022453,0.00018103,0.00044718,-0.00137872,
 0.00043932,-0.00031351,0.00043016,-0.00031061,0.00003267,-0.00008850,0
 .00008723,0.00003234,0.00014409,0.00004330,-0.00066706,-0.00112119,0.0
 0021379,0.00047965,-0.00031765,-0.00020875,0.00025496,-0.00030634,-0.0
 0012027,-0.00002556,-0.00061936,-0.00014570,0.00002597,-0.00003653,0.0
 0005836,-0.00167683,0.00014871,0.00017585,-0.00776331,0.00100670,-0.00
 174811,0.00000772,0.00016698,0.00022952,0.00012997,-0.00011170,0.00019
 685,-0.32868029,0.05089883,-0.03922129,0.00122895,0.00138645,-0.000709
 24,0.00167862,-0.00018344,-0.00083983,0.00021661,0.00007524,0.00003859
 ,0.34646619,-0.00017712,0.00007099,-0.00016804,0.00041757,-0.00101602,
 -0.00087394,0.00015216,-0.00043709,0.00043195,-0.00008093,0.00007075,0
 .00006170,-0.00013576,-0.00001741,-0.00016406,-0.00008701,0.00076392,-
 0.00018672,0.00004214,0.00053519,-0.00015721,-0.00013621,0.00033433,0.
 00021604,-0.00130591,-0.00054212,0.00031282,-0.00008284,0.00001707,-0.
 00003070,0.00032363,-0.00054344,-0.00040231,0.03054022,0.00142316,0.00
 352015,-0.00041020,0.00023765,0.00044379,-0.00004200,-0.00002777,-0.00
 001199,0.04703086,-0.06644281,0.00557667,0.00138875,-0.00461150,0.0009
 6211,-0.00010230,0.00077662,0.00025567,-0.00009578,0.00007660,0.000027
 84,-0.05472778,0.06284079,-0.00054393,-0.00058002,0.00039710,-0.000595
 67,-0.00040869,-0.00045223,-0.00083736,-0.00329757,0.00364336,-0.00020
 895,0.00007380,-0.00009096,-0.00036826,0.00016114,-0.00021978,0.000201
 68,-0.00371283,-0.00827525,0.00023645,0.00570755,0.00044513,-0.0000711
 9,-0.00013024,0.00006705,0.00032523,0.00048102,0.00034865,-0.00024577,
 0.00003298,-0.00043573,0.00566617,-0.00372618,-0.01051956,-0.00776993,
 0.01091535,0.00157843,-0.00009056,0.00019635,0.00008769,0.00005681,0.0
 0021243,0.00014180,-0.03081833,-0.00182585,-0.02642124,-0.00253082,0.0
 0209680,0.00691361,0.00113257,-0.00023721,-0.00074563,-0.00003769,0.00
 001781,-0.00067444,0.04279422,-0.00781854,0.03301372,-0.00002816,-0.00
 001937,0.00009843,-0.00024499,0.00004695,0.00027366,-0.00020766,0.0007
 9562,-0.00110927,0.00006782,-0.00006449,-0.00004139,0.00012120,0.00002
 945,0.00011776,0.00016207,0.00288819,-0.00085426,0.00029451,-0.0011967
 5,0.00020012,0.00022160,-0.00027123,-0.00014267,0.00053951,-0.00011780
 ,-0.00027635,0.00007948,0.00000028,0.00008611,-0.00007258,0.00198621,0
 .00150318,0.00859340,0.00950115,0.00292287,0.00037575,0.00056582,-0.00
 015942,-0.00001532,-0.00000176,0.00002488,-0.15139057,-0.13070726,-0.0
 4157727,0.00075326,-0.00022129,0.00172479,0.00013290,-0.00012884,0.000
 04924,0.00023236,-0.00002035,-0.00044119,-0.01203307,-0.02251149,-0.00
 629467,0.15241850,0.00002471,-0.00003378,0.00003841,0.00060503,0.00006
 695,-0.00004125,0.00012738,0.00023565,0.00017265,-0.00001708,-0.000000
 77,-0.00001927,-0.00002391,0.00001074,-0.00004819,0.00319215,-0.003499
 24,0.00214275,0.00002600,-0.00013843,-0.00006526,-0.00011320,0.0000661
 7,0.00002061,-0.00006968,0.00021806,0.00005274,-0.00000225,0.00001172,
 0.00004140,0.00026652,0.00022453,0.00026033,-0.01896329,-0.01867964,-0
 .00846335,-0.00075558,-0.00115397,-0.00038381,0.00002770,-0.00002546,0
 .00001204,-0.12839113,-0.23140861,-0.04630775,0.00010145,0.00115288,0.
 00007058,0.00009914,0.00006175,-0.00006204,0.00000961,0.00033480,-0.00
 021930,0.00440951,0.00649109,0.00184188,0.13944694,0.24606555,0.000228
 84,0.00014520,-0.00008623,-0.00035694,0.00035192,0.00025193,0.00036907
 ,-0.00089974,0.00078243,-0.00005540,0.00004542,0.00002431,-0.00008632,
 -0.00009273,-0.00000274,-0.00311832,0.00008509,0.00408419,-0.00036049,
 0.00091942,-0.00017602,0.00001591,0.00010928,0.00006343,-0.00014097,-0
 .00038777,0.00008457,-0.00000898,-0.00000758,-0.00013717,-0.00220447,-
 0.00330376,-0.00248022,0.00465847,0.01036024,0.00539975,-0.00009236,0.
 00009423,-0.00010751,0.00006498,-0.00003580,-0.00007954,-0.04364428,-0
 .05603012,-0.04331478,0.00167570,-0.00047078,-0.00447155,-0.00013430,-
 0.00003437,-0.00048844,0.00044866,0.00019026,0.00046612,-0.00115426,-0
 .00199523,0.00119828,0.04389548,0.05095682,0.03898918\\0.00008389,0.00
 029123,-0.00000247,-0.00008432,-0.00040752,0.00000233,0.00000130,0.000
 11754,-0.00000168,0.00000014,0.00000036,-0.00000030,0.00000024,0.00000
 012,-0.00000015,0.00000079,0.00000102,0.00000135,-0.00000088,-0.000001
 78,-0.00000489,0.00000029,0.00000030,-0.00000002,0.,-0.00000016,0.0000
 0058,0.00000008,0.00000018,0.00000004,-0.00000032,0.00000088,0.0000011
 8,-0.00000150,-0.00000277,0.00000384,0.00000006,0.00000027,0.00000009,
 0.00000006,-0.00000009,0.00000032,0.00000126,-0.00000075,-0.00000153,-
 0.00000003,-0.00000003,0.,0.,-0.00000060,-0.00000056,-0.00000012,-0.00
 000015,-0.00000059,-0.00000067,0.00000208,0.00000169,-0.00000028,-0.00
 000012,0.00000078\\\@


 Happiness is a conscious choice, not an automatic response.
 -- Mildred Barthel
 Job cpu time:       0 days  1 hours 52 minutes 20.3 seconds.
 Elapsed time:       0 days  0 hours  9 minutes 22.5 seconds.
 File lengths (MBytes):  RWF=    162 Int=      0 D2E=      0 Chk=     32 Scr=      1
 Normal termination of Gaussian 16 at Fri Jun 10 04:00:01 2022.
