 Entering Gaussian System, Link 0=g16
 Input=int_zmat_field_N50.gjf
 Output=int_zmat_field_N50.out
 Initial command:
 /software/gaussian/g16-a03/l1.exe "/local_scratch/11174491/Gau-14152.inp" -scrdir="/local_scratch/11174491/"
 Entering Link 1 = /software/gaussian/g16-a03/l1.exe PID=     14153.
  
 Copyright (c) 1988,1990,1992,1993,1995,1998,2003,2009,2016,
            Gaussian, Inc.  All Rights Reserved.
  
 This is part of the Gaussian(R) 16 program.  It is based on
 the Gaussian(R) 09 system (copyright 2009, Gaussian, Inc.),
 the Gaussian(R) 03 system (copyright 2003, Gaussian, Inc.),
 the Gaussian(R) 98 system (copyright 1998, Gaussian, Inc.),
 the Gaussian(R) 94 system (copyright 1995, Gaussian, Inc.),
 the Gaussian 92(TM) system (copyright 1992, Gaussian, Inc.),
 the Gaussian 90(TM) system (copyright 1990, Gaussian, Inc.),
 the Gaussian 88(TM) system (copyright 1988, Gaussian, Inc.),
 the Gaussian 86(TM) system (copyright 1986, Carnegie Mellon
 University), and the Gaussian 82(TM) system (copyright 1983,
 Carnegie Mellon University). Gaussian is a federally registered
 trademark of Gaussian, Inc.
  
 This software contains proprietary and confidential information,
 including trade secrets, belonging to Gaussian, Inc.
  
 This software is provided under written license and may be
 used, copied, transmitted, or stored only in accord with that
 written license.
  
 The following legend is applicable only to US Government
 contracts under FAR:
  
                    RESTRICTED RIGHTS LEGEND
  
 Use, reproduction and disclosure by the US Government is
 subject to restrictions as set forth in subparagraphs (a)
 and (c) of the Commercial Computer Software - Restricted
 Rights clause in FAR 52.227-19.
  
 Gaussian, Inc.
 340 Quinnipiac St., Bldg. 40, Wallingford CT 06492
  
  
 ---------------------------------------------------------------
 Warning -- This program may not be used in any manner that
 competes with the business of Gaussian, Inc. or will provide
 assistance to any competitor of Gaussian, Inc.  The licensee
 of this program is prohibited from giving any competitor of
 Gaussian, Inc. access to this program.  By using this program,
 the user acknowledges that Gaussian, Inc. is engaged in the
 business of creating and licensing software in the field of
 computational chemistry and represents and warrants to the
 licensee that it is not a competitor of Gaussian, Inc. and that
 it will not use this program in any manner prohibited above.
 ---------------------------------------------------------------
  

 Cite this work as:
 Gaussian 16, Revision A.03,
 M. J. Frisch, G. W. Trucks, H. B. Schlegel, G. E. Scuseria, 
 M. A. Robb, J. R. Cheeseman, G. Scalmani, V. Barone, 
 G. A. Petersson, H. Nakatsuji, X. Li, M. Caricato, A. V. Marenich, 
 J. Bloino, B. G. Janesko, R. Gomperts, B. Mennucci, H. P. Hratchian, 
 J. V. Ortiz, A. F. Izmaylov, J. L. Sonnenberg, D. Williams-Young, 
 F. Ding, F. Lipparini, F. Egidi, J. Goings, B. Peng, A. Petrone, 
 T. Henderson, D. Ranasinghe, V. G. Zakrzewski, J. Gao, N. Rega, 
 G. Zheng, W. Liang, M. Hada, M. Ehara, K. Toyota, R. Fukuda, 
 J. Hasegawa, M. Ishida, T. Nakajima, Y. Honda, O. Kitao, H. Nakai, 
 T. Vreven, K. Throssell, J. A. Montgomery, Jr., J. E. Peralta, 
 F. Ogliaro, M. J. Bearpark, J. J. Heyd, E. N. Brothers, K. N. Kudin, 
 V. N. Staroverov, T. A. Keith, R. Kobayashi, J. Normand, 
 K. Raghavachari, A. P. Rendell, J. C. Burant, S. S. Iyengar, 
 J. Tomasi, M. Cossi, J. M. Millam, M. Klene, C. Adamo, R. Cammi, 
 J. W. Ochterski, R. L. Martin, K. Morokuma, O. Farkas, 
 J. B. Foresman, and D. J. Fox, Gaussian, Inc., Wallingford CT, 2016.
 
 ******************************************
 Gaussian 16:  ES64L-G16RevA.03 25-Dec-2016
                10-Jun-2022 
 ******************************************
 %nprocshared=12
 Will use up to   12 processors via shared memory.
 %chk=checkpoint.chk
 %mem=12GB
 ----------------------------------------------------------------------
 # Opt=(Z-matrix, MaxStep=10) B3LYP/Def2TZVP geom=allcheckpoint guess=r
 ead Field=read NoSymm freq=noraman pop=none
 ----------------------------------------------------------------------
 1/8=10,10=7,18=40,26=3,29=7,38=1/1,3;
 2/12=2,15=1,29=3,40=1/2;
 3/5=44,7=101,11=2,14=-6,25=1,30=1,71=1,74=-5,116=-2/1,2,3;
 4/5=1/1;
 5/5=2,38=6/2;
 7/29=1,30=1/1,2,3,16;
 1/8=10,10=7,18=40,26=3/3(2);
 2/15=1,29=3/2;
 99//99;
 2/15=1,29=3/2;
 3/5=44,7=101,11=2,14=-2,25=1,30=1,71=1,74=-5/1,2,3;
 4/5=5,16=3,69=1/1;
 5/5=2,38=5/2;
 7/30=1/1,2,3,16;
 1/8=10,18=40,26=3/3(-5);
 2/15=1,29=3/2;
 99/9=1/99;
 Structure from the checkpoint file:  "checkpoint.chk"
 ------------------
 int_zmat_initalOpt
 ------------------
 Charge =  0 Multiplicity = 1
 Z-Matrix found in chk file.
 H
 C,1,R2
 C,2,R3,1,A3
 C,2,R4,1,A4,3,D4,0
 H,2,R5,1,A5,3,D5,0
 H,4,R6,2,A6,1,D6,0
 C,3,R7,2,A7,1,D7,0
 C,4,R8,2,A8,6,D8,0
 H,3,R9,2,A9,7,D9,0
 H,3,R10,2,A10,7,D10,0
 H,7,R11,3,A11,2,D11,0
 H,8,R12,4,A12,2,D12,0
 C,7,R13,3,A13,11,D13,0
 C,8,R14,4,A14,12,D14,0
 H,14,R15,8,A15,4,D15,0
 H,14,R16,8,A16,15,D16,0
 C,13,R17,7,A17,3,D17,0
 H,13,R18,7,A18,17,D18,0
 H,17,R19,13,A19,7,D19,0
 H,17,R20,13,A20,19,D20,0
      Variables:
 R2=1.08877442
 R3=1.54703354
 R4=1.55034213
 R5=1.09104184
 R6=1.09446393
 R7=1.5448275
 R8=1.49691407
 R9=1.08984496
 R10=1.08970654
 R11=1.0954335
 R12=1.0873633
 R13=1.49148783
 R14=1.3277669
 R15=1.08287251
 R16=1.08256406
 R17=1.32747687
 R18=1.08836875
 R19=1.08225867
 R20=1.08319803
 A3=117.2172586
 A4=117.73767624
 A5=108.27972345
 A6=114.9966358
 A7=88.94137509
 A8=117.63269723
 A9=111.25902163
 A10=117.88280073
 A11=109.22530481
 A12=114.3884263
 A13=121.81618604
 A14=127.66717622
 A15=122.60770069
 A16=120.98062262
 A17=126.25360445
 A18=115.25379905
 A19=121.37635082
 A20=122.1150443
 D4=105.08678425
 D5=-127.85337
 D6=107.13974401
 D7=139.80959315
 D8=-129.20886676
 D9=-112.93179133
 D10=120.49581819
 D11=89.08060756
 D12=-166.34968586
 D13=127.46114865
 D14=-179.77575051
 D15=-0.73604326
 D16=180.5169795
 D17=-6.31599622
 D18=-178.71868532
 D19=-178.77386525
 D20=179.54463513
 Recover connectivity data from disk.

 GradGradGradGradGradGradGradGradGradGradGradGradGradGradGradGradGradGrad
 Berny optimization.
 Initialization pass.
                       ----------------------------
                       !    Initial Parameters    !
                       ! (Angstroms and Degrees)  !
 ----------------------                            ----------------------
 !      Name          Value   Derivative information (Atomic Units)     !
 ------------------------------------------------------------------------
 !       R2          1.0888   estimate D2E/DX2                          !
 !       R3          1.547    estimate D2E/DX2                          !
 !       R4          1.5503   estimate D2E/DX2                          !
 !       R5          1.091    estimate D2E/DX2                          !
 !       R6          1.0945   estimate D2E/DX2                          !
 !       R7          1.5448   estimate D2E/DX2                          !
 !       R8          1.4969   estimate D2E/DX2                          !
 !       R9          1.0898   estimate D2E/DX2                          !
 !       R10         1.0897   estimate D2E/DX2                          !
 !       R11         1.0954   estimate D2E/DX2                          !
 !       R12         1.0874   estimate D2E/DX2                          !
 !       R13         1.4915   estimate D2E/DX2                          !
 !       R14         1.3278   estimate D2E/DX2                          !
 !       R15         1.0829   estimate D2E/DX2                          !
 !       R16         1.0826   estimate D2E/DX2                          !
 !       R17         1.3275   estimate D2E/DX2                          !
 !       R18         1.0884   estimate D2E/DX2                          !
 !       R19         1.0823   estimate D2E/DX2                          !
 !       R20         1.0832   estimate D2E/DX2                          !
 !       A3        117.2173   estimate D2E/DX2                          !
 !       A4        117.7377   estimate D2E/DX2                          !
 !       A5        108.2797   estimate D2E/DX2                          !
 !       A6        114.9966   estimate D2E/DX2                          !
 !       A7         88.9414   estimate D2E/DX2                          !
 !       A8        117.6327   estimate D2E/DX2                          !
 !       A9        111.259    estimate D2E/DX2                          !
 !       A10       117.8828   estimate D2E/DX2                          !
 !       A11       109.2253   estimate D2E/DX2                          !
 !       A12       114.3884   estimate D2E/DX2                          !
 !       A13       121.8162   estimate D2E/DX2                          !
 !       A14       127.6672   estimate D2E/DX2                          !
 !       A15       122.6077   estimate D2E/DX2                          !
 !       A16       120.9806   estimate D2E/DX2                          !
 !       A17       126.2536   estimate D2E/DX2                          !
 !       A18       115.2538   estimate D2E/DX2                          !
 !       A19       121.3764   estimate D2E/DX2                          !
 !       A20       122.115    estimate D2E/DX2                          !
 !       D4        105.0868   estimate D2E/DX2                          !
 !       D5       -127.8534   estimate D2E/DX2                          !
 !       D6        107.1397   estimate D2E/DX2                          !
 !       D7        139.8096   estimate D2E/DX2                          !
 !       D8       -129.2089   estimate D2E/DX2                          !
 !       D9       -112.9318   estimate D2E/DX2                          !
 !       D10       120.4958   estimate D2E/DX2                          !
 !       D11        89.0806   estimate D2E/DX2                          !
 !       D12      -166.3497   estimate D2E/DX2                          !
 !       D13       127.4611   estimate D2E/DX2                          !
 !       D14      -179.7758   estimate D2E/DX2                          !
 !       D15        -0.736    estimate D2E/DX2                          !
 !       D16       180.517    estimate D2E/DX2                          !
 !       D17        -6.316    estimate D2E/DX2                          !
 !       D18      -178.7187   estimate D2E/DX2                          !
 !       D19      -178.7739   estimate D2E/DX2                          !
 !       D20       179.5446   estimate D2E/DX2                          !
 ------------------------------------------------------------------------
 Trust Radius=1.00D-01 FncErr=1.00D-07 GrdErr=1.00D-06 EigMax=2.50D+02 EigMin=1.00D-04
 Number of steps in this run=     64 maximum allowed number of steps=    108.
 GradGradGradGradGradGradGradGradGradGradGradGradGradGradGradGradGradGrad

 ---------------------------------------------------------------------------------------------------
                            Z-MATRIX (ANGSTROMS AND DEGREES)
   CD    Cent   Atom    N1       Length/X        N2       Alpha/Y        N3        Beta/Z          J
 ---------------------------------------------------------------------------------------------------
      1      1  H 
      2      2  C        1   1.088774(     1)
      3      3  C        2   1.547034(     2)      1  117.217(    20)
      4      4  C        2   1.550342(     3)      1  117.738(    21)      3  105.087(    38)      0
      5      5  H        2   1.091042(     4)      1  108.280(    22)      3 -127.853(    39)      0
      6      6  H        4   1.094464(     5)      2  114.997(    23)      1  107.140(    40)      0
      7      7  C        3   1.544828(     6)      2   88.941(    24)      1  139.810(    41)      0
      8      8  C        4   1.496914(     7)      2  117.633(    25)      6 -129.209(    42)      0
      9      9  H        3   1.089845(     8)      2  111.259(    26)      7 -112.932(    43)      0
     10     10  H        3   1.089707(     9)      2  117.883(    27)      7  120.496(    44)      0
     11     11  H        7   1.095434(    10)      3  109.225(    28)      2   89.081(    45)      0
     12     12  H        8   1.087363(    11)      4  114.388(    29)      2 -166.350(    46)      0
     13     13  C        7   1.491488(    12)      3  121.816(    30)     11  127.461(    47)      0
     14     14  C        8   1.327767(    13)      4  127.667(    31)     12 -179.776(    48)      0
     15     15  H       14   1.082873(    14)      8  122.608(    32)      4   -0.736(    49)      0
     16     16  H       14   1.082564(    15)      8  120.981(    33)     15  180.517(    50)      0
     17     17  C       13   1.327477(    16)      7  126.254(    34)      3   -6.316(    51)      0
     18     18  H       13   1.088369(    17)      7  115.254(    35)     17 -178.719(    52)      0
     19     19  H       17   1.082259(    18)     13  121.376(    36)      7 -178.774(    53)      0
     20     20  H       17   1.083198(    19)     13  122.115(    37)     19  179.545(    54)      0
 ---------------------------------------------------------------------------------------------------
                         Z-Matrix orientation:                         
 ---------------------------------------------------------------------
 Center     Atomic      Atomic             Coordinates (Angstroms)
 Number     Number       Type             X           Y           Z
 ---------------------------------------------------------------------
      1          1           0        0.000000    0.000000    0.000000
      2          6           0        0.000000    0.000000    1.088774
      3          6           0        1.375744    0.000000    1.796335
      4          6           0       -0.357156    1.324893    1.810341
      5          1           0       -0.635724   -0.817996    1.430987
      6          1           0       -1.343509    1.342034    2.284330
      7          6           0        0.810717    0.996753    2.832539
      8          6           0       -0.184878    2.600191    1.045692
      9          1           0        2.141508    0.459179    1.171417
     10          1           0        1.754751   -0.949443    2.173656
     11          1           0        0.358889    0.439255    3.660199
     12          1           0       -0.221668    3.498703    1.656987
     13          6           0        1.644623    2.092683    3.405317
     14          6           0       -0.001684    2.744039   -0.261485
     15          1           0        0.054961    1.901223   -0.939028
     16          1           0        0.107776    3.725892   -0.704122
     17          6           0        2.944550    2.275214    3.207660
     18          1           0        1.117126    2.783806    4.060025
     19          1           0        3.477433    3.090026    3.680312
     20          1           0        3.528693    1.618030    2.575043
 ---------------------------------------------------------------------
                    Distance matrix (angstroms):
                    1          2          3          4          5
     1  H    0.000000
     2  C    1.088774   0.000000
     3  C    2.262629   1.547034   0.000000
     4  C    2.271616   1.550342   2.181394   0.000000
     5  H    1.766631   1.091042   2.201954   2.193966   0.000000
     6  H    2.970561   2.243975   3.071405   1.094464   2.427938
     7  C    3.110315   2.165986   1.544828   1.586346   2.711062
     8  C    2.808673   2.607111   3.124099   1.496914   3.469253
     9  H    2.483771   2.191741   1.089845   2.720479   3.067828
    10  H    2.950487   2.271027   1.089707   3.124861   2.506633
    11  H    3.703891   2.633244   2.168163   2.172338   2.745783
    12  H    3.877585   3.551468   3.848645   2.183420   4.342397
    13  C    4.322070   3.528523   2.653383   2.672184   4.191661
    14  C    2.756470   3.058260   3.696171   2.536296   3.994316
    15  H    2.121189   2.780225   3.583480   2.839195   3.672624
    16  H    3.793373   4.136226   4.662864   3.507632   5.075274
    17  C    4.912846   4.282131   3.103158   3.709025   5.053996
    18  H    5.047906   4.222070   3.597326   3.059904   4.791378
    19  H    5.931737   5.325117   4.185060   4.616986   6.103291
    20  H    4.658384   4.156765   2.803498   3.971211   4.958373
                    6          7          8          9         10
     6  H    0.000000
     7  C    2.249543   0.000000
     8  C    2.111778   2.599047   0.000000
     9  H    3.763423   2.195295   3.164144   0.000000
    10  H    3.855169   2.261196   4.199329   1.771519   0.000000
    11  H    2.367739   1.095434   3.435255   3.061400   2.467129
    12  H    2.510639   2.950847   1.087363   3.880604   4.894812
    13  C    3.278570   1.491488   3.028608   2.811679   3.283847
    14  C    3.201138   3.644995   1.327767   3.444860   4.759915
    15  H    3.557871   3.951450   2.117828   3.299568   4.550208
    16  H    4.088992   4.522201   2.101119   4.280786   5.731745
    17  C    4.484508   2.515635   3.817464   2.844143   3.589317
    18  H    3.359543   2.189558   3.288637   3.846727   4.231088
    19  H    5.314671   3.494551   4.538026   3.873062   4.642732
    20  H    4.888665   2.799943   4.134509   2.288534   3.146411
                   11         12         13         14         15
    11  H    0.000000
    12  H    3.702719   0.000000
    13  C    2.109954   2.918320   0.000000
    14  C    4.563075   2.073269   4.071858   0.000000
    15  H    4.835558   3.060680   4.630013   1.082873   0.000000
    16  H    5.469218   2.394783   4.681534   1.082564   1.840486
    17  C    3.203308   3.731816   1.327477   4.575484   5.067999
    18  H    2.496338   2.842189   1.088369   4.464165   5.186298
    19  H    4.092959   4.236061   2.104640   5.268940   5.870679
    20  H    3.551723   4.294760   2.112906   4.666620   4.949314
                   16         17         18         19         20
    16  H    0.000000
    17  C    5.045175   0.000000
    18  H    4.960183   2.079584   0.000000
    19  H    5.566164   1.082259   2.410187   0.000000
    20  H    5.186394   1.083198   3.062656   1.841472   0.000000
 Symmetry turned off by external request.
 Stoichiometry    C8H12
 Framework group  C1[X(C8H12)]
 Deg. of freedom    54
 Full point group                 C1      NOp   1
 Rotational constants (GHZ):           2.7923338           1.6973886           1.3165070
 Standard basis: def2TZVP (5D, 7F)
 The following finite field(s) will be applied:
 An electric field of             -0.0046 -0.0016 -0.0011
   320 basis functions,   504 primitive gaussians,   360 cartesian basis functions
    30 alpha electrons       30 beta electrons
       nuclear repulsion energy       360.3852313421 Hartrees.
 NAtoms=   20 NActive=   20 NUniq=   20 SFac= 1.00D+00 NAtFMM=   60 NAOKFM=F Big=F
 Integral buffers will be    131072 words long.
 Raffenetti 2 integral format.
 Two-electron integral symmetry is turned off.
 One-electron integrals computed using PRISM.
   1 Symmetry operations used in ECPInt.
 ECPInt:  NShTT=    9316 NPrTT=   27240 LenC2=    9174 LenP2D=   21657.
 LDataN:  DoStor=T MaxTD1= 6 Len=  172
 NBasis=   320 RedAO= T EigKep=  3.41D-05  NBF=   320
 NBsUse=   320 1.00D-06 EigRej= -1.00D+00 NBFU=   320
 The nuclear repulsion energy is now       359.4674583479 hartrees.
 Initial guess from the checkpoint file:  "checkpoint.chk"
 B after Tr=     0.000000    0.000000   -0.000000
         Rot=    1.000000   -0.000000    0.000000    0.000000 Ang=   0.00 deg.
 Requested convergence on RMS density matrix=1.00D-08 within 128 cycles.
 Requested convergence on MAX density matrix=1.00D-06.
 Requested convergence on             energy=1.00D-06.
 No special actions if energy rises.
 SCF Done:  E(RB3LYP) =  -312.117392807     A.U. after   10 cycles
            NFock= 10  Conv=0.43D-08     -V/T= 2.0056
   1 Symmetry operations used in ECPInt.
 ECPInt:  NShTT=    9316 NPrTT=   27240 LenC2=    9174 LenP2D=   21657.
 LDataN:  DoStor=T MaxTD1= 7 Len=  274
 Calling FoFJK, ICntrl=      2127 FMM=F ISym2X=0 I1Cent= 0 IOpClX= 0 NMat=1 NMatS=1 NMatT=0.
 -------------------------------------------------------------------
 Center     Atomic                   Forces (Hartrees/Bohr)
 Number     Number              X              Y              Z
 -------------------------------------------------------------------
      1        1          -0.000114820    0.000022237   -0.000311329
      2        6           0.000251177    0.000110773   -0.000117913
      3        6           0.000007041    0.000000594    0.000003786
      4        6           0.000442281   -0.000102739   -0.000087733
      5        1          -0.000185387   -0.000280783    0.000171384
      6        1          -0.000323892    0.000067864    0.000171830
      7        6           0.000113233    0.000174576    0.000112068
      8        6          -0.000512282   -0.000051745    0.000085748
      9        1          -0.000104904   -0.000086557    0.000159567
     10        1           0.000059228    0.000126611   -0.000060395
     11        1          -0.000074186   -0.000243516    0.000021687
     12        1           0.000295786   -0.000096029    0.000011552
     13        6           0.000347565    0.000535815   -0.000049584
     14        6          -0.000699425    0.000191968   -0.000217034
     15        1           0.000305597   -0.000112550    0.000001972
     16        1           0.000360327   -0.000023177    0.000057878
     17        6          -0.000412121   -0.000024862   -0.000100665
     18        1           0.000027408   -0.000064724    0.000098501
     19        1           0.000062185   -0.000229807   -0.000073330
     20        1           0.000155188    0.000086053    0.000122010
 -------------------------------------------------------------------
 Cartesian Forces:  Max     0.000699425 RMS     0.000215250
 -----------------------------------------------------------------------------------------------
                       Internal Coordinate Forces (Hartree/Bohr or radian)
  Cent   Atom   N1       Length/X         N2         Alpha/Y        N3         Beta/Z          J
 -----------------------------------------------------------------------------------------------
      1  H 
      2  C        1   0.000311(     1)
      3  C        2   0.000267(     2)      1  -0.000426(    20)
      4  C        2  -0.000066(     3)      1   0.000072(    21)      3   0.000206(    38)     0
      5  H        2   0.000372(     4)      1   0.000119(    22)      3   0.000051(    39)     0
      6  H        4   0.000367(     5)      2   0.000131(    23)      1   0.000099(    40)     0
      7  C        3   0.000158(     6)      2   0.001068(    24)      1  -0.000251(    41)     0
      8  C        4  -0.000076(     7)      2  -0.000122(    25)      6   0.000115(    42)     0
      9  H        3  -0.000202(     8)      2   0.000117(    26)      7   0.000017(    43)     0
     10  H        3  -0.000111(     9)      2   0.000179(    27)      7   0.000106(    44)     0
     11  H        7   0.000171(    10)      3  -0.000376(    28)      2   0.000002(    45)     0
     12  H        8  -0.000083(    11)      4  -0.000044(    29)      2   0.000167(    46)     0
     13  C        7   0.000322(    12)      3  -0.000442(    30)     11   0.000109(    47)     0
     14  C        8   0.000156(    13)      4   0.000045(    31)     12  -0.000392(    48)     0
     15  H       14   0.000102(    14)      8  -0.000066(    32)      4   0.000111(    49)     0
     16  H       14  -0.000008(    15)      8  -0.000013(    33)     15   0.000641(    50)     0
     17  C       13  -0.000206(    16)      7  -0.000321(    34)      3   0.000063(    51)     0
     18  H       13   0.000005(    17)      7   0.000008(    35)     17   0.000225(    52)     0
     19  H       17  -0.000174(    18)     13   0.000314(    36)      7   0.000022(    53)     0
     20  H       17  -0.000040(    19)     13   0.000403(    37)     19  -0.000135(    54)     0
 -----------------------------------------------------------------------------------------------
 Internal  Forces:  Max     0.001068155 RMS     0.000263215

 GradGradGradGradGradGradGradGradGradGradGradGradGradGradGradGradGradGrad
 Berny optimization.
 Search for a local minimum.
 Step number   1 out of a maximum of   64
 All quantities printed in internal units (Hartrees-Bohrs-Radians)
 Second derivative matrix not updated -- first step.
 ITU=  0
     Eigenvalues ---    0.03613   0.03938   0.04669   0.04837   0.05920
     Eigenvalues ---    0.06871   0.07525   0.08501   0.12399   0.14003
     Eigenvalues ---    0.15234   0.16339   0.16890   0.17539   0.18828
     Eigenvalues ---    0.19725   0.20338   0.21038   0.21971   0.23086
     Eigenvalues ---    0.25039   0.25280   0.26266   0.27877   0.31107
     Eigenvalues ---    0.31919   0.32703   0.33287   0.34192   0.34302
     Eigenvalues ---    0.34693   0.34831   0.34847   0.34955   0.35001
     Eigenvalues ---    0.35119   0.35610   0.35649   0.35686   0.35723
     Eigenvalues ---    0.37366   0.42900   0.43220   0.46637   0.48385
     Eigenvalues ---    0.50431   0.54344   0.60036   0.60104   0.60784
     Eigenvalues ---    0.70413   0.93648   1.84912   5.56645
 RFO step:  Lambda=-1.67603960D-05 EMin= 3.61339829D-02
 Linear search not attempted -- first point.
 Variable       Old X    -DE/DX   Delta X   Delta X   Delta X     New X
                                 (Linear)    (Quad)   (Total)
    R2        2.05749   0.00031   0.00000   0.00089   0.00089   2.05838
    R3        2.92347   0.00027   0.00000   0.00037   0.00037   2.92384
    R4        2.92972  -0.00007   0.00000   0.00017   0.00017   2.92989
    R5        2.06177   0.00037   0.00000   0.00107   0.00107   2.06284
    R6        2.06824   0.00037   0.00000   0.00107   0.00107   2.06931
    R7        2.91930   0.00016   0.00000   0.00016   0.00016   2.91946
    R8        2.82876  -0.00008   0.00000  -0.00023  -0.00023   2.82853
    R9        2.05951  -0.00020   0.00000  -0.00058  -0.00058   2.05893
   R10        2.05925  -0.00011   0.00000  -0.00032  -0.00032   2.05893
   R11        2.07007   0.00017   0.00000   0.00051   0.00051   2.07058
   R12        2.05482  -0.00008   0.00000  -0.00024  -0.00024   2.05458
   R13        2.81850   0.00032   0.00000   0.00096   0.00096   2.81947
   R14        2.50912   0.00016   0.00000   0.00026   0.00026   2.50938
   R15        2.04633   0.00010   0.00000   0.00029   0.00029   2.04662
   R16        2.04575  -0.00001   0.00000  -0.00002  -0.00002   2.04573
   R17        2.50857  -0.00021   0.00000  -0.00034  -0.00034   2.50823
   R18        2.05672   0.00000   0.00000   0.00002   0.00002   2.05674
   R19        2.04517  -0.00017   0.00000  -0.00049  -0.00049   2.04469
   R20        2.04695  -0.00004   0.00000  -0.00011  -0.00011   2.04683
    A3        2.04583  -0.00043   0.00000  -0.00096  -0.00096   2.04487
    A4        2.05491   0.00007   0.00000   0.00084   0.00084   2.05576
    A5        1.88984   0.00012   0.00000   0.00050   0.00050   1.89034
    A6        2.00707   0.00013   0.00000   0.00070   0.00070   2.00777
    A7        1.55232   0.00107   0.00000   0.00102   0.00102   1.55334
    A8        2.05308  -0.00012   0.00000  -0.00070  -0.00070   2.05237
    A9        1.94184   0.00012   0.00000  -0.00003  -0.00003   1.94181
   A10        2.05744   0.00018   0.00000   0.00069   0.00069   2.05813
   A11        1.90634  -0.00038   0.00000  -0.00157  -0.00157   1.90477
   A12        1.99645  -0.00004   0.00000  -0.00026  -0.00026   1.99620
   A13        2.12609  -0.00044   0.00000  -0.00012  -0.00012   2.12597
   A14        2.22821   0.00004   0.00000   0.00024   0.00024   2.22845
   A15        2.13991  -0.00007   0.00000  -0.00025  -0.00025   2.13966
   A16        2.11151  -0.00001   0.00000   0.00003   0.00003   2.11155
   A17        2.20354  -0.00032   0.00000  -0.00034  -0.00034   2.20320
   A18        2.01156   0.00001   0.00000   0.00006   0.00006   2.01162
   A19        2.11842   0.00031   0.00000   0.00005   0.00005   2.11847
   A20        2.13131   0.00040   0.00000   0.00134   0.00134   2.13265
    D4        1.83411   0.00021   0.00000   0.00011   0.00011   1.83422
    D5       -2.23146   0.00005   0.00000   0.00107   0.00107  -2.23040
    D6        1.86994   0.00010   0.00000   0.00374   0.00374   1.87368
    D7        2.44014  -0.00025   0.00000  -0.00249  -0.00249   2.43765
    D8       -2.25512   0.00011   0.00000   0.00063   0.00063  -2.25449
    D9       -1.97103   0.00002   0.00000   0.00062   0.00062  -1.97041
   D10        2.10305   0.00011   0.00000   0.00114   0.00114   2.10419
   D11        1.55475   0.00000   0.00000   0.00288   0.00288   1.55763
   D12       -2.90335   0.00017   0.00000   0.00501   0.00501  -2.89834
   D13        2.22462   0.00011   0.00000  -0.00010  -0.00010   2.22452
   D14       -3.13768  -0.00039   0.00000  -0.00643  -0.00643  -3.14411
   D15       -0.01285   0.00011   0.00000  -0.00059  -0.00059  -0.01344
   D16        3.15062   0.00064   0.00000   0.00921   0.00921   3.15983
   D17       -0.11023   0.00006   0.00000  -0.00085  -0.00085  -0.11109
   D18       -3.11923   0.00022   0.00000   0.00297   0.00297  -3.11626
   D19       -3.12019   0.00002   0.00000   0.00320   0.00320  -3.11700
   D20        3.13365  -0.00013   0.00000  -0.00248  -0.00248   3.13117
         Item               Value     Threshold  Converged?
 Maximum Force            0.001068     0.000450     NO 
 RMS     Force            0.000263     0.000300     YES
 Maximum Displacement     0.009212     0.001800     NO 
 RMS     Displacement     0.002035     0.001200     NO 
 Predicted change in Energy=-8.380197D-06
 GradGradGradGradGradGradGradGradGradGradGradGradGradGradGradGradGradGrad

 ---------------------------------------------------------------------------------------------------
                            Z-MATRIX (ANGSTROMS AND DEGREES)
   CD    Cent   Atom    N1       Length/X        N2       Alpha/Y        N3        Beta/Z          J
 ---------------------------------------------------------------------------------------------------
      1      1  H 
      2      2  C        1   1.089246(     1)
      3      3  C        2   1.547227(     2)      1  117.162(    20)
      4      4  C        2   1.550434(     3)      1  117.786(    21)      3  105.093(    38)      0
      5      5  H        2   1.091610(     4)      1  108.308(    22)      3 -127.792(    39)      0
      6      6  H        4   1.095032(     5)      2  115.036(    23)      1  107.354(    40)      0
      7      7  C        3   1.544913(     6)      2   89.000(    24)      1  139.667(    41)      0
      8      8  C        4   1.496792(     7)      2  117.592(    25)      6 -129.173(    42)      0
      9      9  H        3   1.089538(     8)      2  111.257(    26)      7 -112.896(    43)      0
     10     10  H        3   1.089539(     9)      2  117.922(    27)      7  120.561(    44)      0
     11     11  H        7   1.095702(    10)      3  109.136(    28)      2   89.245(    45)      0
     12     12  H        8   1.087239(    11)      4  114.374(    29)      2 -166.063(    46)      0
     13     13  C        7   1.491997(    12)      3  121.809(    30)     11  127.456(    47)      0
     14     14  C        8   1.327905(    13)      4  127.681(    31)     12 -180.144(    48)      0
     15     15  H       14   1.083025(    14)      8  122.593(    32)      4   -0.770(    49)      0
     16     16  H       14   1.082553(    15)      8  120.983(    33)     15  181.045(    50)      0
     17     17  C       13   1.327296(    16)      7  126.234(    34)      3   -6.365(    51)      0
     18     18  H       13   1.088380(    17)      7  115.257(    35)     17 -178.549(    52)      0
     19     19  H       17   1.082001(    18)     13  121.379(    36)      7 -178.591(    53)      0
     20     20  H       17   1.083137(    19)     13  122.192(    37)     19  179.403(    54)      0
 ---------------------------------------------------------------------------------------------------
                         Z-Matrix orientation:                         
 ---------------------------------------------------------------------
 Center     Atomic      Atomic             Coordinates (Angstroms)
 Number     Number       Type             X           Y           Z
 ---------------------------------------------------------------------
      1          1           0        0.000000    0.000000    0.000000
      2          6           0        0.000000    0.000000    1.089246
      3          6           0        1.376595    0.000000    1.795573
      4          6           0       -0.357168    1.324342    1.812014
      5          1           0       -0.635078   -0.818965    1.432153
      6          1           0       -1.342313    1.340398    2.289849
      7          6           0        0.815059    0.999760    2.830906
      8          6           0       -0.190334    2.599208    1.045678
      9          1           0        2.141912    0.457359    1.169310
     10          1           0        1.755941   -0.948730    2.173863
     11          1           0        0.366633    0.443008    3.661271
     12          1           0       -0.221588    3.497655    1.657154
     13          6           0        1.651251    2.097792    3.397616
     14          6           0       -0.011003    2.742534   -0.262232
     15          1           0        0.046592    1.899030   -0.939082
     16          1           0        0.102570    3.723888   -0.704913
     17          6           0        2.950465    2.278885    3.195221
     18          1           0        1.126597    2.789668    4.053830
     19          1           0        3.485808    3.093116    3.665501
     20          1           0        3.533259    1.620371    2.562848
 ---------------------------------------------------------------------
                    Distance matrix (angstroms):
                    1          2          3          4          5
     1  H    0.000000
     2  C    1.089246   0.000000
     3  C    2.262542   1.547227   0.000000
     4  C    2.272630   1.550434   2.181762   0.000000
     5  H    1.767792   1.091610   2.202182   2.194377   0.000000
     6  H    2.973530   2.244976   3.071390   1.095032   2.428718
     7  C    3.110927   2.167307   1.544913   1.586698   2.714252
     8  C    2.808122   2.606531   3.126258   1.496792   3.468582
     9  H    2.482791   2.191661   1.089538   2.722155   3.067534
    10  H    2.951118   2.271522   1.089539   3.124583   2.506780
    11  H    3.706154   2.635525   2.167281   2.172645   2.750449
    12  H    3.876707   3.550382   3.847979   2.183038   4.342213
    13  C    4.321014   3.529297   2.653810   2.673220   4.194975
    14  C    2.755064   3.057467   3.698849   2.536453   3.993079
    15  H    2.119048   2.778957   3.585187   2.839335   3.670821
    16  H    3.791407   4.134836   4.662929   3.507720   5.074316
    17  C    4.909990   4.281786   3.103127   3.710101   5.055809
    18  H    5.048268   4.223769   3.597843   3.061777   4.795719
    19  H    5.929091   5.324971   4.184827   4.618705   6.105237
    20  H    4.655933   4.157045   2.804552   3.973262   4.960228
                    6          7          8          9         10
     6  H    0.000000
     7  C    2.250117   0.000000
     8  C    2.111780   2.599247   0.000000
     9  H    3.764996   2.194457   3.168939   0.000000
    10  H    3.853925   2.261322   4.201030   1.770646   0.000000
    11  H    2.367827   1.095702   3.435219   3.059688   2.465663
    12  H    2.511989   2.948188   1.087239   3.881691   4.893665
    13  C    3.280582   1.491997   3.028938   2.810181   3.284787
    14  C    3.201794   3.645153   1.327905   3.450562   4.762571
    15  H    3.559090   3.951208   2.117937   3.303650   4.552147
    16  H    4.091125   4.520014   2.101254   4.282737   5.731871
    17  C    4.486468   2.515720   3.819393   2.841836   3.589924
    18  H    3.362667   2.190062   3.289310   3.845905   4.231544
    19  H    5.317442   3.494509   4.541083   3.870948   4.642622
    20  H    4.891229   2.801005   4.138245   2.287005   3.148086
                   11         12         13         14         15
    11  H    0.000000
    12  H    3.700454   0.000000
    13  C    2.111414   2.914850   0.000000
    14  C    4.563365   2.073306   4.071028   0.000000
    15  H    4.835874   3.060714   4.628325   1.083025   0.000000
    16  H    5.467857   2.394915   4.676895   1.082553   1.840672
    17  C    3.203722   3.730010   1.327296   4.575942   5.066482
    18  H    2.497691   2.839525   1.088380   4.463714   5.185443
    19  H    4.092962   4.235787   2.104288   5.270454   5.869943
    20  H    3.552497   4.294573   2.113462   4.669275   4.949547
                   16         17         18         19         20
    16  H    0.000000
    17  C    5.040792   0.000000
    18  H    4.956514   2.079567   0.000000
    19  H    5.562795   1.082001   2.410136   0.000000
    20  H    5.183886   1.083137   3.063055   1.840400   0.000000
 Symmetry turned off by external request.
 Stoichiometry    C8H12
 Framework group  C1[X(C8H12)]
 Deg. of freedom    54
 Full point group                 C1      NOp   1
 Rotational constants (GHZ):           2.7916455           1.6969943           1.3161259
 Standard basis: def2TZVP (5D, 7F)
 The following finite field(s) will be applied:
 An electric field of             -0.0046 -0.0016 -0.0011
   320 basis functions,   504 primitive gaussians,   360 cartesian basis functions
    30 alpha electrons       30 beta electrons
       nuclear repulsion energy       360.3436478286 Hartrees.
 NAtoms=   20 NActive=   20 NUniq=   20 SFac= 1.00D+00 NAtFMM=   60 NAOKFM=F Big=F
 Integral buffers will be    131072 words long.
 Raffenetti 2 integral format.
 Two-electron integral symmetry is turned off.
 One-electron integrals computed using PRISM.
   1 Symmetry operations used in ECPInt.
 ECPInt:  NShTT=    9316 NPrTT=   27240 LenC2=    9174 LenP2D=   21656.
 LDataN:  DoStor=T MaxTD1= 6 Len=  172
 NBasis=   320 RedAO= T EigKep=  3.40D-05  NBF=   320
 NBsUse=   320 1.00D-06 EigRej= -1.00D+00 NBFU=   320
 The nuclear repulsion energy is now       359.4257074128 hartrees.
 Initial guess from the checkpoint file:  "checkpoint.chk"
 B after Tr=    -0.009967   -0.003547    0.004323
         Rot=    0.999998    0.000639   -0.001857   -0.000313 Ang=   0.23 deg.
 Requested convergence on RMS density matrix=1.00D-08 within 128 cycles.
 Requested convergence on MAX density matrix=1.00D-06.
 Requested convergence on             energy=1.00D-06.
 No special actions if energy rises.
 SCF Done:  E(RB3LYP) =  -312.117402900     A.U. after    8 cycles
            NFock=  8  Conv=0.42D-08     -V/T= 2.0056
   1 Symmetry operations used in ECPInt.
 ECPInt:  NShTT=    9316 NPrTT=   27240 LenC2=    9174 LenP2D=   21656.
 LDataN:  DoStor=T MaxTD1= 7 Len=  274
 Calling FoFJK, ICntrl=      2127 FMM=F ISym2X=0 I1Cent= 0 IOpClX= 0 NMat=1 NMatS=1 NMatT=0.
 -------------------------------------------------------------------
 Center     Atomic                   Forces (Hartrees/Bohr)
 Number     Number              X              Y              Z
 -------------------------------------------------------------------
      1        1          -0.000210078    0.000064731    0.000045678
      2        6           0.000121307   -0.000349512    0.000150354
      3        6           0.000054538    0.000332860   -0.000128191
      4        6           0.000142751    0.000037893   -0.000134050
      5        1          -0.000009587   -0.000034857   -0.000034010
      6        1          -0.000013970   -0.000059633    0.000022495
      7        6          -0.000114937   -0.000053186    0.000112772
      8        6          -0.000062404   -0.000002037    0.000009822
      9        1           0.000038062   -0.000039048   -0.000037915
     10        1           0.000001583    0.000018342    0.000009679
     11        1          -0.000000569    0.000039586    0.000017734
     12        1           0.000096210    0.000011597    0.000005470
     13        6           0.000018773    0.000101768   -0.000006380
     14        6          -0.000262535    0.000047282   -0.000064472
     15        1           0.000104311   -0.000003175    0.000025037
     16        1           0.000109002   -0.000007199    0.000024861
     17        6          -0.000180544   -0.000069502   -0.000049762
     18        1           0.000032340   -0.000037428    0.000023060
     19        1           0.000084821   -0.000008769   -0.000019782
     20        1           0.000050924    0.000010286    0.000027601
 -------------------------------------------------------------------
 Cartesian Forces:  Max     0.000349512 RMS     0.000099970
 -----------------------------------------------------------------------------------------------
                       Internal Coordinate Forces (Hartree/Bohr or radian)
  Cent   Atom   N1       Length/X         N2         Alpha/Y        N3         Beta/Z          J
 -----------------------------------------------------------------------------------------------
      1  H 
      2  C        1  -0.000046(     1)
      3  C        2  -0.000037(     2)      1  -0.000263(    20)
      4  C        2  -0.000057(     3)      1  -0.000069(    21)      3  -0.000313(    38)     0
      5  H        2   0.000021(     4)      1  -0.000088(    22)      3   0.000027(    39)     0
      6  H        4   0.000022(     5)      2  -0.000106(    23)      1  -0.000004(    40)     0
      7  C        3   0.000099(     6)      2   0.000168(    24)      1  -0.000069(    41)     0
      8  C        4   0.000037(     7)      2   0.000101(    25)      6  -0.000069(    42)     0
      9  H        3   0.000032(     8)      2   0.000011(    26)      7  -0.000111(    43)     0
     10  H        3  -0.000012(     9)      2   0.000027(    27)      7  -0.000020(    44)     0
     11  H        7  -0.000006(    10)      3   0.000087(    28)      2   0.000027(    45)     0
     12  H        8   0.000010(    11)      4   0.000031(    29)      2   0.000104(    46)     0
     13  C        7  -0.000009(    12)      3  -0.000336(    30)     11   0.000011(    47)     0
     14  C        8   0.000012(    13)      4   0.000086(    31)     12  -0.000075(    48)     0
     15  H       14  -0.000008(    14)      8  -0.000017(    32)      4   0.000012(    49)     0
     16  H       14  -0.000005(    15)      8  -0.000019(    33)     15   0.000196(    50)     0
     17  C       13  -0.000047(    16)      7  -0.000260(    34)      3   0.000049(    51)     0
     18  H       13  -0.000025(    17)      7   0.000023(    35)     17   0.000087(    52)     0
     19  H       17   0.000027(    18)     13   0.000170(    36)      7  -0.000033(    53)     0
     20  H       17   0.000005(    19)     13   0.000107(    37)     19  -0.000045(    54)     0
 -----------------------------------------------------------------------------------------------
 Internal  Forces:  Max     0.000336173 RMS     0.000104028

 GradGradGradGradGradGradGradGradGradGradGradGradGradGradGradGradGradGrad
 Berny optimization.
 Search for a local minimum.
 Step number   2 out of a maximum of   64
 All quantities printed in internal units (Hartrees-Bohrs-Radians)
 Update second derivatives using D2CorN and points    1    2
 DE= -1.01D-05 DEPred=-8.38D-06 R= 1.20D+00
 TightC=F SS=  1.41D+00  RLast= 1.50D-02 DXNew= 1.6818D-01 4.4869D-02
 Trust test= 1.20D+00 RLast= 1.50D-02 DXMaxT set to 1.00D-01
 ITU=  1  0
     Eigenvalues ---    0.03344   0.03615   0.04152   0.04825   0.05921
     Eigenvalues ---    0.06949   0.07485   0.08125   0.12432   0.14006
     Eigenvalues ---    0.15203   0.16338   0.16895   0.17528   0.18829
     Eigenvalues ---    0.19726   0.20345   0.21041   0.22029   0.23074
     Eigenvalues ---    0.25053   0.25296   0.26293   0.27873   0.31110
     Eigenvalues ---    0.31920   0.32707   0.33290   0.34194   0.34291
     Eigenvalues ---    0.34682   0.34838   0.34845   0.34972   0.35003
     Eigenvalues ---    0.35120   0.35610   0.35650   0.35686   0.35729
     Eigenvalues ---    0.37458   0.42887   0.43220   0.46584   0.48384
     Eigenvalues ---    0.50355   0.54346   0.60034   0.60094   0.60730
     Eigenvalues ---    0.70374   0.93625   1.84890   5.56638
 RFO step:  Lambda=-2.90036685D-06 EMin= 3.34394985D-02
 Quartic linear search produced a step of  0.25768.
 Variable       Old X    -DE/DX   Delta X   Delta X   Delta X     New X
                                 (Linear)    (Quad)   (Total)
    R2        2.05838  -0.00005   0.00023  -0.00039  -0.00016   2.05822
    R3        2.92384  -0.00004   0.00009  -0.00015  -0.00006   2.92378
    R4        2.92989  -0.00006   0.00004  -0.00002   0.00002   2.92992
    R5        2.06284   0.00002   0.00028  -0.00018   0.00010   2.06294
    R6        2.06931   0.00002   0.00028  -0.00017   0.00010   2.06941
    R7        2.91946   0.00010   0.00004   0.00013   0.00017   2.91963
    R8        2.82853   0.00004  -0.00006   0.00021   0.00015   2.82868
    R9        2.05893   0.00003  -0.00015   0.00026   0.00011   2.05904
   R10        2.05893  -0.00001  -0.00008   0.00003  -0.00005   2.05888
   R11        2.07058  -0.00001   0.00013  -0.00014  -0.00001   2.07056
   R12        2.05458   0.00001  -0.00006   0.00010   0.00003   2.05462
   R13        2.81947  -0.00001   0.00025  -0.00027  -0.00002   2.81944
   R14        2.50938   0.00001   0.00007  -0.00004   0.00003   2.50940
   R15        2.04662  -0.00001   0.00007  -0.00010  -0.00002   2.04660
   R16        2.04573  -0.00001  -0.00001  -0.00001  -0.00002   2.04571
   R17        2.50823  -0.00005  -0.00009  -0.00002  -0.00011   2.50812
   R18        2.05674  -0.00003   0.00001  -0.00010  -0.00009   2.05665
   R19        2.04469   0.00003  -0.00013   0.00022   0.00009   2.04478
   R20        2.04683   0.00001  -0.00003   0.00004   0.00001   2.04685
    A3        2.04487  -0.00026  -0.00025  -0.00141  -0.00166   2.04321
    A4        2.05576  -0.00007   0.00022  -0.00087  -0.00065   2.05511
    A5        1.89034  -0.00009   0.00013   0.00047   0.00059   1.89093
    A6        2.00777  -0.00011   0.00018  -0.00064  -0.00046   2.00731
    A7        1.55334   0.00017   0.00026  -0.00026   0.00001   1.55335
    A8        2.05237   0.00010  -0.00018   0.00081   0.00063   2.05301
    A9        1.94181   0.00001  -0.00001   0.00012   0.00011   1.94192
   A10        2.05813   0.00003   0.00018  -0.00020  -0.00002   2.05812
   A11        1.90477   0.00009  -0.00040   0.00107   0.00067   1.90544
   A12        1.99620   0.00003  -0.00007   0.00003  -0.00004   1.99616
   A13        2.12597  -0.00034  -0.00003  -0.00075  -0.00078   2.12519
   A14        2.22845   0.00009   0.00006   0.00025   0.00031   2.22876
   A15        2.13966  -0.00002  -0.00006   0.00001  -0.00005   2.13961
   A16        2.11155  -0.00002   0.00001  -0.00009  -0.00008   2.11147
   A17        2.20320  -0.00026  -0.00009  -0.00040  -0.00049   2.20271
   A18        2.01162   0.00002   0.00002   0.00022   0.00024   2.01186
   A19        2.11847   0.00017   0.00001   0.00021   0.00022   2.11868
   A20        2.13265   0.00011   0.00034   0.00016   0.00051   2.13316
    D4        1.83422  -0.00031   0.00003  -0.00193  -0.00191   1.83232
    D5       -2.23040   0.00003   0.00027  -0.00061  -0.00033  -2.23073
    D6        1.87368  -0.00000   0.00096   0.00120   0.00216   1.87584
    D7        2.43765  -0.00007  -0.00064  -0.00005  -0.00069   2.43696
    D8       -2.25449  -0.00007   0.00016  -0.00100  -0.00083  -2.25532
    D9       -1.97041  -0.00011   0.00016  -0.00085  -0.00069  -1.97111
   D10        2.10419  -0.00002   0.00029  -0.00070  -0.00040   2.10378
   D11        1.55763   0.00003   0.00074  -0.00115  -0.00041   1.55722
   D12       -2.89834   0.00010   0.00129   0.00239   0.00368  -2.89466
   D13        2.22452   0.00001  -0.00002   0.00015   0.00012   2.22464
   D14       -3.14411  -0.00007  -0.00166  -0.00080  -0.00246  -3.14657
   D15       -0.01344   0.00001  -0.00015  -0.00111  -0.00126  -0.01469
   D16        3.15983   0.00020   0.00237   0.00246   0.00483   3.16466
   D17       -0.11109   0.00005  -0.00022  -0.00015  -0.00037  -0.11146
   D18       -3.11626   0.00009   0.00076   0.00040   0.00116  -3.11510
   D19       -3.11700  -0.00003   0.00082   0.00007   0.00089  -3.11610
   D20        3.13117  -0.00005  -0.00064  -0.00035  -0.00098   3.13018
         Item               Value     Threshold  Converged?
 Maximum Force            0.000336     0.000450     YES
 RMS     Force            0.000104     0.000300     YES
 Maximum Displacement     0.004834     0.001800     NO 
 RMS     Displacement     0.001091     0.001200     YES
 Predicted change in Energy=-1.627459D-06
 GradGradGradGradGradGradGradGradGradGradGradGradGradGradGradGradGradGrad

 ---------------------------------------------------------------------------------------------------
                            Z-MATRIX (ANGSTROMS AND DEGREES)
   CD    Cent   Atom    N1       Length/X        N2       Alpha/Y        N3        Beta/Z          J
 ---------------------------------------------------------------------------------------------------
      1      1  H 
      2      2  C        1   1.089161(     1)
      3      3  C        2   1.547195(     2)      1  117.067(    20)
      4      4  C        2   1.550444(     3)      1  117.749(    21)      3  104.984(    38)      0
      5      5  H        2   1.091663(     4)      1  108.342(    22)      3 -127.811(    39)      0
      6      6  H        4   1.095087(     5)      2  115.010(    23)      1  107.478(    40)      0
      7      7  C        3   1.545003(     6)      2   89.000(    24)      1  139.627(    41)      0
      8      8  C        4   1.496872(     7)      2  117.629(    25)      6 -129.220(    42)      0
      9      9  H        3   1.089598(     8)      2  111.264(    26)      7 -112.936(    43)      0
     10     10  H        3   1.089512(     9)      2  117.921(    27)      7  120.538(    44)      0
     11     11  H        7   1.095695(    10)      3  109.174(    28)      2   89.222(    45)      0
     12     12  H        8   1.087257(    11)      4  114.371(    29)      2 -165.852(    46)      0
     13     13  C        7   1.491986(    12)      3  121.765(    30)     11  127.463(    47)      0
     14     14  C        8   1.327920(    13)      4  127.699(    31)     12 -180.285(    48)      0
     15     15  H       14   1.083011(    14)      8  122.590(    32)      4   -0.842(    49)      0
     16     16  H       14   1.082544(    15)      8  120.978(    33)     15  181.322(    50)      0
     17     17  C       13   1.327238(    16)      7  126.206(    34)      3   -6.386(    51)      0
     18     18  H       13   1.088332(    17)      7  115.271(    35)     17 -178.482(    52)      0
     19     19  H       17   1.082051(    18)     13  121.392(    36)      7 -178.539(    53)      0
     20     20  H       17   1.083144(    19)     13  122.221(    37)     19  179.346(    54)      0
 ---------------------------------------------------------------------------------------------------
                         Z-Matrix orientation:                         
 ---------------------------------------------------------------------
 Center     Atomic      Atomic             Coordinates (Angstroms)
 Number     Number       Type             X           Y           Z
 ---------------------------------------------------------------------
      1          1           0        0.000000    0.000000    0.000000
      2          6           0        0.000000    0.000000    1.089161
      3          6           0        1.377735    0.000000    1.793193
      4          6           0       -0.354767    1.325482    1.811044
      5          1           0       -0.635254   -0.818633    1.432701
      6          1           0       -1.339227    1.342492    2.290382
      7          6           0        0.818203    1.000632    2.828902
      8          6           0       -0.187328    2.599978    1.044071
      9          1           0        2.142428    0.456110    1.165154
     10          1           0        1.757207   -0.948536    2.171763
     11          1           0        0.370433    0.445170    3.660474
     12          1           0       -0.213386    3.498455    1.655779
     13          6           0        1.656685    2.098163    3.393169
     14          6           0       -0.010422    2.743155   -0.264201
     15          1           0        0.045522    1.899565   -0.941062
     16          1           0        0.107157    3.724198   -0.706502
     17          6           0        2.955737    2.276930    3.188064
     18          1           0        1.134479    2.790746    4.050508
     19          1           0        3.493707    3.090264    3.657009
     20          1           0        3.536701    1.617057    2.555410
 ---------------------------------------------------------------------
                    Distance matrix (angstroms):
                    1          2          3          4          5
     1  H    0.000000
     2  C    1.089161   0.000000
     3  C    2.261348   1.547195   0.000000
     4  C    2.272145   1.550444   2.181464   0.000000
     5  H    1.768146   1.091663   2.202780   2.195232   0.000000
     6  H    2.973493   2.244715   3.071053   1.095087   2.429332
     7  C    3.110211   2.167354   1.545003   1.586639   2.715077
     8  C    2.808035   2.607107   3.125778   1.496872   3.469664
     9  H    2.481052   2.191759   1.089598   2.721941   3.067909
    10  H    2.950263   2.271459   1.089512   3.124374   2.507381
    11  H    3.706004   2.635725   2.167849   2.172845   2.751650
    12  H    3.876380   3.550462   3.845742   2.183096   4.343384
    13  C    4.319779   3.529213   2.653305   2.673218   4.195726
    14  C    2.755868   3.058855   3.699290   2.536733   3.994524
    15  H    2.120381   2.780687   3.585985   2.839699   3.672438
    16  H    3.792134   4.135885   4.661813   3.507885   5.075892
    17  C    4.907600   4.280909   3.101639   3.709565   5.055594
    18  H    5.047963   4.224321   3.597626   3.062687   4.797134
    19  H    5.927009   5.324431   4.183406   4.618744   6.105354
    20  H    4.653305   4.156082   2.803032   3.972735   4.959665
                    6          7          8          9         10
     6  H    0.000000
     7  C    2.249751   0.000000
     8  C    2.112211   2.598966   0.000000
     9  H    3.764802   2.195024   3.168374   0.000000
    10  H    3.853672   2.261154   4.200578   1.770504   0.000000
    11  H    2.367547   1.095695   3.435092   3.060507   2.466134
    12  H    2.513646   2.946102   1.087257   3.878974   4.891340
    13  C    3.280651   1.491986   3.028278   2.810042   3.283948
    14  C    3.202105   3.645586   1.327920   3.450854   4.763089
    15  H    3.559506   3.951930   2.117911   3.304047   4.553156
    16  H    4.092172   4.519125   2.101214   4.280868   5.730753
    17  C    4.486171   2.515349   3.818367   2.840602   3.587892
    18  H    3.363735   2.190174   3.289716   3.846005   4.230805
    19  H    5.317860   3.494373   4.540688   3.869634   4.640398
    20  H    4.890839   2.800894   4.137472   2.285741   3.145799
                   11         12         13         14         15
    11  H    0.000000
    12  H    3.698945   0.000000
    13  C    2.111464   2.911444   0.000000
    14  C    4.563865   2.073161   4.070825   0.000000
    15  H    4.836834   3.060566   4.628266   1.083011   0.000000
    16  H    5.467341   2.394594   4.674648   1.082544   1.840681
    17  C    3.203484   3.726038   1.327238   4.575325   5.065712
    18  H    2.497523   2.837661   1.088332   4.464279   5.186117
    19  H    4.092844   4.232503   2.104406   5.270228   5.869413
    20  H    3.552427   4.290938   2.113708   4.669089   4.949087
                   16         17         18         19         20
    16  H    0.000000
    17  C    5.037523   0.000000
    18  H    4.955388   2.079615   0.000000
    19  H    5.559751   1.082051   2.410499   0.000000
    20  H    5.180916   1.083144   3.063256   1.840029   0.000000
 Symmetry turned off by external request.
 Stoichiometry    C8H12
 Framework group  C1[X(C8H12)]
 Deg. of freedom    54
 Full point group                 C1      NOp   1
 Rotational constants (GHZ):           2.7911520           1.6975184           1.3163701
 Standard basis: def2TZVP (5D, 7F)
 The following finite field(s) will be applied:
 An electric field of             -0.0046 -0.0016 -0.0011
   320 basis functions,   504 primitive gaussians,   360 cartesian basis functions
    30 alpha electrons       30 beta electrons
       nuclear repulsion energy       360.3549349994 Hartrees.
 NAtoms=   20 NActive=   20 NUniq=   20 SFac= 1.00D+00 NAtFMM=   60 NAOKFM=F Big=F
 Integral buffers will be    131072 words long.
 Raffenetti 2 integral format.
 Two-electron integral symmetry is turned off.
 One-electron integrals computed using PRISM.
   1 Symmetry operations used in ECPInt.
 ECPInt:  NShTT=    9316 NPrTT=   27240 LenC2=    9174 LenP2D=   21656.
 LDataN:  DoStor=T MaxTD1= 6 Len=  172
 NBasis=   320 RedAO= T EigKep=  3.39D-05  NBF=   320
 NBsUse=   320 1.00D-06 EigRej= -1.00D+00 NBFU=   320
 The nuclear repulsion energy is now       359.4358539018 hartrees.
 Initial guess from the checkpoint file:  "checkpoint.chk"
 B after Tr=    -0.003374    0.000172   -0.000982
         Rot=    1.000000    0.000280   -0.000759    0.000586 Ang=   0.11 deg.
 Requested convergence on RMS density matrix=1.00D-08 within 128 cycles.
 Requested convergence on MAX density matrix=1.00D-06.
 Requested convergence on             energy=1.00D-06.
 No special actions if energy rises.
 SCF Done:  E(RB3LYP) =  -312.117404803     A.U. after    7 cycles
            NFock=  7  Conv=0.70D-08     -V/T= 2.0056
   1 Symmetry operations used in ECPInt.
 ECPInt:  NShTT=    9316 NPrTT=   27240 LenC2=    9174 LenP2D=   21656.
 LDataN:  DoStor=T MaxTD1= 7 Len=  274
 Calling FoFJK, ICntrl=      2127 FMM=F ISym2X=0 I1Cent= 0 IOpClX= 0 NMat=1 NMatS=1 NMatT=0.
 -------------------------------------------------------------------
 Center     Atomic                   Forces (Hartrees/Bohr)
 Number     Number              X              Y              Z
 -------------------------------------------------------------------
      1        1          -0.000325295    0.000014238   -0.000027219
      2        6           0.000300767   -0.000211375   -0.000024327
      3        6           0.000003237    0.000179196    0.000050772
      4        6          -0.000062750    0.000012736    0.000014011
      5        1           0.000014936    0.000043675   -0.000022497
      6        1          -0.000005945   -0.000010946   -0.000013888
      7        6           0.000027705    0.000034094   -0.000041944
      8        6           0.000048522   -0.000030831    0.000015843
      9        1          -0.000026479   -0.000005791    0.000010188
     10        1           0.000012470   -0.000019572    0.000009524
     11        1           0.000013342    0.000006625   -0.000018111
     12        1          -0.000005334   -0.000011377    0.000005826
     13        6           0.000000011    0.000012396    0.000042409
     14        6          -0.000013853   -0.000010629   -0.000000008
     15        1          -0.000010740   -0.000015424   -0.000005409
     16        1          -0.000001561    0.000001352    0.000003957
     17        6          -0.000016686    0.000002176    0.000021926
     18        1           0.000025464    0.000010100    0.000008958
     19        1           0.000032187    0.000000140   -0.000023979
     20        1          -0.000009998   -0.000000785   -0.000006034
 -------------------------------------------------------------------
 Cartesian Forces:  Max     0.000325295 RMS     0.000070702
 -----------------------------------------------------------------------------------------------
                       Internal Coordinate Forces (Hartree/Bohr or radian)
  Cent   Atom   N1       Length/X         N2         Alpha/Y        N3         Beta/Z          J
 -----------------------------------------------------------------------------------------------
      1  H 
      2  C        1   0.000027(     1)
      3  C        2   0.000079(     2)      1  -0.000183(    20)
      4  C        2  -0.000034(     3)      1   0.000046(    21)      3   0.000124(    38)     0
      5  H        2  -0.000049(     4)      1  -0.000016(    22)      3  -0.000029(    39)     0
      6  H        4  -0.000001(     5)      2  -0.000032(    23)      1   0.000006(    40)     0
      7  C        3   0.000005(     6)      2   0.000323(    24)      1  -0.000245(    41)     0
      8  C        4  -0.000065(     7)      2  -0.000104(    25)      6   0.000025(    42)     0
      9  H        3  -0.000027(     8)      2  -0.000020(    26)      7   0.000008(    43)     0
     10  H        3   0.000025(     9)      2   0.000009(    27)      7   0.000001(    44)     0
     11  H        7  -0.000023(    10)      3  -0.000012(    28)      2  -0.000031(    45)     0
     12  H        8  -0.000006(    11)      4  -0.000024(    29)      2   0.000062(    46)     0
     13  C        7   0.000051(    12)      3  -0.000144(    30)     11  -0.000037(    47)     0
     14  C        8  -0.000005(    13)      4  -0.000070(    31)     12   0.000069(    48)     0
     15  H       14   0.000015(    14)      8  -0.000014(    32)      4   0.000017(    49)     0
     16  H       14  -0.000001(    15)      8  -0.000009(    33)     15  -0.000002(    50)     0
     17  C       13   0.000007(    16)      7  -0.000106(    34)      3   0.000037(    51)     0
     18  H       13  -0.000000(    17)      7   0.000058(    35)     17   0.000013(    52)     0
     19  H       17   0.000006(    18)     13   0.000077(    36)      7  -0.000010(    53)     0
     20  H       17  -0.000001(    19)     13  -0.000020(    37)     19   0.000011(    54)     0
 -----------------------------------------------------------------------------------------------
 Internal  Forces:  Max     0.000323121 RMS     0.000075801

 GradGradGradGradGradGradGradGradGradGradGradGradGradGradGradGradGradGrad
 Berny optimization.
 Search for a local minimum.
 Step number   3 out of a maximum of   64
 All quantities printed in internal units (Hartrees-Bohrs-Radians)
 Update second derivatives using D2CorN and points    1    2    3
 DE= -1.90D-06 DEPred=-1.63D-06 R= 1.17D+00
 TightC=F SS=  1.41D+00  RLast= 8.02D-03 DXNew= 1.6818D-01 2.4056D-02
 Trust test= 1.17D+00 RLast= 8.02D-03 DXMaxT set to 1.00D-01
 ITU=  1  1  0
     Eigenvalues ---    0.02720   0.03617   0.04075   0.04948   0.05964
     Eigenvalues ---    0.06976   0.07443   0.08306   0.12475   0.14011
     Eigenvalues ---    0.15171   0.16338   0.16929   0.17554   0.18831
     Eigenvalues ---    0.19721   0.20349   0.21044   0.22080   0.23047
     Eigenvalues ---    0.24977   0.25309   0.26296   0.27868   0.31109
     Eigenvalues ---    0.31921   0.32722   0.33288   0.34197   0.34290
     Eigenvalues ---    0.34700   0.34840   0.34849   0.34977   0.35004
     Eigenvalues ---    0.35121   0.35610   0.35651   0.35686   0.35731
     Eigenvalues ---    0.37468   0.42893   0.43219   0.46504   0.48383
     Eigenvalues ---    0.50300   0.54367   0.60033   0.60090   0.60639
     Eigenvalues ---    0.70341   0.93599   1.84854   5.56628
 RFO step:  Lambda=-8.84183157D-07 EMin= 2.72036136D-02
 Quartic linear search produced a step of  0.08793.
 Variable       Old X    -DE/DX   Delta X   Delta X   Delta X     New X
                                 (Linear)    (Quad)   (Total)
    R2        2.05822   0.00003  -0.00001   0.00009   0.00008   2.05830
    R3        2.92378   0.00008  -0.00001   0.00015   0.00015   2.92392
    R4        2.92992  -0.00003   0.00000   0.00004   0.00004   2.92996
    R5        2.06294  -0.00005   0.00001  -0.00016  -0.00016   2.06279
    R6        2.06941  -0.00000   0.00001   0.00000   0.00001   2.06943
    R7        2.91963   0.00000   0.00001  -0.00011  -0.00009   2.91954
    R8        2.82868  -0.00007   0.00001  -0.00024  -0.00023   2.82845
    R9        2.05904  -0.00003   0.00001  -0.00009  -0.00008   2.05896
   R10        2.05888   0.00002  -0.00000   0.00008   0.00008   2.05896
   R11        2.07056  -0.00002  -0.00000  -0.00008  -0.00008   2.07049
   R12        2.05462  -0.00001   0.00000  -0.00002  -0.00002   2.05460
   R13        2.81944   0.00005  -0.00000   0.00019   0.00019   2.81963
   R14        2.50940  -0.00000   0.00000  -0.00001  -0.00001   2.50940
   R15        2.04660   0.00001  -0.00000   0.00005   0.00005   2.04664
   R16        2.04571  -0.00000  -0.00000  -0.00000  -0.00001   2.04571
   R17        2.50812   0.00001  -0.00001   0.00001   0.00000   2.50812
   R18        2.05665  -0.00000  -0.00001   0.00000  -0.00001   2.05664
   R19        2.04478   0.00001   0.00001   0.00002   0.00003   2.04481
   R20        2.04685  -0.00000   0.00000  -0.00001  -0.00001   2.04684
    A3        2.04321  -0.00018  -0.00015  -0.00017  -0.00031   2.04290
    A4        2.05511   0.00005  -0.00006  -0.00020  -0.00025   2.05485
    A5        1.89093  -0.00002   0.00005   0.00009   0.00015   1.89108
    A6        2.00731  -0.00003  -0.00004   0.00004   0.00000   2.00731
    A7        1.55335   0.00032   0.00000   0.00038   0.00038   1.55373
    A8        2.05301  -0.00010   0.00006  -0.00042  -0.00036   2.05264
    A9        1.94192  -0.00002   0.00001  -0.00024  -0.00023   1.94169
   A10        2.05812   0.00001  -0.00000   0.00010   0.00010   2.05822
   A11        1.90544  -0.00001   0.00006  -0.00028  -0.00022   1.90522
   A12        1.99616  -0.00002  -0.00000  -0.00004  -0.00004   1.99611
   A13        2.12519  -0.00014  -0.00007  -0.00004  -0.00011   2.12508
   A14        2.22876  -0.00007   0.00003  -0.00014  -0.00012   2.22864
   A15        2.13961  -0.00001  -0.00000  -0.00003  -0.00004   2.13957
   A16        2.11147  -0.00001  -0.00001  -0.00005  -0.00005   2.11141
   A17        2.20271  -0.00011  -0.00004  -0.00013  -0.00018   2.20253
   A18        2.01186   0.00006   0.00002   0.00022   0.00024   2.01210
   A19        2.11868   0.00008   0.00002   0.00019   0.00021   2.11889
   A20        2.13316  -0.00002   0.00004  -0.00005  -0.00000   2.13315
    D4        1.83232   0.00012  -0.00017  -0.00005  -0.00022   1.83210
    D5       -2.23073  -0.00003  -0.00003  -0.00024  -0.00027  -2.23100
    D6        1.87584   0.00001   0.00019   0.00155   0.00174   1.87758
    D7        2.43696  -0.00025  -0.00006  -0.00180  -0.00187   2.43509
    D8       -2.25532   0.00002  -0.00007   0.00015   0.00007  -2.25524
    D9       -1.97111   0.00001  -0.00006   0.00016   0.00010  -1.97101
   D10        2.10378   0.00000  -0.00004   0.00037   0.00033   2.10411
   D11        1.55722  -0.00003  -0.00004   0.00147   0.00144   1.55865
   D12       -2.89466   0.00006   0.00032   0.00153   0.00185  -2.89281
   D13        2.22464  -0.00004   0.00001  -0.00053  -0.00052   2.22413
   D14       -3.14657   0.00007  -0.00022   0.00008  -0.00013  -3.14670
   D15       -0.01469   0.00002  -0.00011  -0.00030  -0.00041  -0.01510
   D16        3.16466  -0.00000   0.00043   0.00069   0.00112   3.16578
   D17       -0.11146   0.00004  -0.00003   0.00063   0.00059  -0.11087
   D18       -3.11510   0.00001   0.00010   0.00042   0.00052  -3.11458
   D19       -3.11610  -0.00001   0.00008   0.00050   0.00058  -3.11552
   D20        3.13018   0.00001  -0.00009  -0.00017  -0.00026   3.12993
         Item               Value     Threshold  Converged?
 Maximum Force            0.000323     0.000450     YES
 RMS     Force            0.000076     0.000300     YES
 Maximum Displacement     0.001865     0.001800     NO 
 RMS     Displacement     0.000543     0.001200     YES
 Predicted change in Energy=-4.268569D-07
 GradGradGradGradGradGradGradGradGradGradGradGradGradGradGradGradGradGrad

 ---------------------------------------------------------------------------------------------------
                            Z-MATRIX (ANGSTROMS AND DEGREES)
   CD    Cent   Atom    N1       Length/X        N2       Alpha/Y        N3        Beta/Z          J
 ---------------------------------------------------------------------------------------------------
      1      1  H 
      2      2  C        1   1.089203(     1)
      3      3  C        2   1.547274(     2)      1  117.050(    20)
      4      4  C        2   1.550465(     3)      1  117.734(    21)      3  104.972(    38)      0
      5      5  H        2   1.091581(     4)      1  108.351(    22)      3 -127.827(    39)      0
      6      6  H        4   1.095094(     5)      2  115.010(    23)      1  107.577(    40)      0
      7      7  C        3   1.544954(     6)      2   89.022(    24)      1  139.521(    41)      0
      8      8  C        4   1.496752(     7)      2  117.608(    25)      6 -129.216(    42)      0
      9      9  H        3   1.089554(     8)      2  111.250(    26)      7 -112.930(    43)      0
     10     10  H        3   1.089554(     9)      2  117.927(    27)      7  120.557(    44)      0
     11     11  H        7   1.095654(    10)      3  109.161(    28)      2   89.304(    45)      0
     12     12  H        8   1.087248(    11)      4  114.369(    29)      2 -165.746(    46)      0
     13     13  C        7   1.492086(    12)      3  121.758(    30)     11  127.433(    47)      0
     14     14  C        8   1.327917(    13)      4  127.692(    31)     12 -180.293(    48)      0
     15     15  H       14   1.083037(    14)      8  122.588(    32)      4   -0.865(    49)      0
     16     16  H       14   1.082541(    15)      8  120.975(    33)     15  181.386(    50)      0
     17     17  C       13   1.327239(    16)      7  126.196(    34)      3   -6.352(    51)      0
     18     18  H       13   1.088327(    17)      7  115.285(    35)     17 -178.452(    52)      0
     19     19  H       17   1.082066(    18)     13  121.404(    36)      7 -178.506(    53)      0
     20     20  H       17   1.083141(    19)     13  122.221(    37)     19  179.332(    54)      0
 ---------------------------------------------------------------------------------------------------
                         Z-Matrix orientation:                         
 ---------------------------------------------------------------------
 Center     Atomic      Atomic             Coordinates (Angstroms)
 Number     Number       Type             X           Y           Z
 ---------------------------------------------------------------------
      1          1           0        0.000000    0.000000    0.000000
      2          6           0        0.000000    0.000000    1.089203
      3          6           0        1.378023    0.000000    1.792843
      4          6           0       -0.354529    1.325755    1.810748
      5          1           0       -0.635397   -0.818360    1.432869
      6          1           0       -1.338324    1.342494    2.291475
      7          6           0        0.820205    1.002800    2.827306
      8          6           0       -0.188865    2.599463    1.042317
      9          1           0        2.142681    0.454531    1.163695
     10          1           0        1.757058   -0.948268    2.172644
     11          1           0        0.373730    0.448916    3.660570
     12          1           0       -0.212672    3.498404    1.653419
     13          6           0        1.660045    2.101031    3.388446
     14          6           0       -0.015737    2.741360   -0.266597
     15          1           0        0.038256    1.897064   -0.942776
     16          1           0        0.101581    3.721928   -0.710014
     17          6           0        2.958806    2.278874    3.180709
     18          1           0        1.139518    2.794655    4.046012
     19          1           0        3.498298    3.092349    3.647694
     20          1           0        3.538265    1.617889    2.547842
 ---------------------------------------------------------------------
                    Distance matrix (angstroms):
                    1          2          3          4          5
     1  H    0.000000
     2  C    1.089203   0.000000
     3  C    2.261246   1.547274   0.000000
     4  C    2.272031   1.550465   2.181670   0.000000
     5  H    1.768207   1.091581   2.202988   2.195201   0.000000
     6  H    2.973930   2.244740   3.070744   1.095094   2.429115
     7  C    3.109984   2.167797   1.544954   1.586723   2.716589
     8  C    2.807010   2.606737   3.126602   1.496752   3.468925
     9  H    2.480296   2.191627   1.089554   2.722823   3.067641
    10  H    2.950737   2.271632   1.089554   3.124252   2.507586
    11  H    3.706882   2.636878   2.167611   2.172798   2.754447
    12  H    3.875288   3.549986   3.845593   2.182952   4.343016
    13  C    4.318755   3.529390   2.653265   2.673704   4.197163
    14  C    2.754338   3.058349   3.701204   2.536549   3.992965
    15  H    2.118759   2.780153   3.588514   2.839466   3.670289
    16  H    3.790407   4.135245   4.663298   3.507695   5.074377
    17  C    4.905579   4.280444   3.101341   3.709908   5.056293
    18  H    5.047654   4.225082   3.597743   3.063699   4.799242
    19  H    5.925064   5.324151   4.183140   4.619470   6.106270
    20  H    4.650632   4.155058   2.802540   3.972719   4.959630
                    6          7          8          9         10
     6  H    0.000000
     7  C    2.249834   0.000000
     8  C    2.112256   2.598796   0.000000
     9  H    3.765337   2.194799   3.170422   0.000000
    10  H    3.852675   2.261182   4.201268   1.770459   0.000000
    11  H    2.367283   1.095654   3.434620   3.060001   2.465694
    12  H    2.514390   2.944976   1.087248   3.879779   4.891045
    13  C    3.281606   1.492086   3.028402   2.809522   3.284176
    14  C    3.201530   3.646042   1.327917   3.454575   4.765087
    15  H    3.558497   3.952804   2.117909   3.308583   4.555879
    16  H    4.091940   4.519149   2.101178   4.284012   5.732456
    17  C    4.486967   2.515327   3.818812   2.839478   3.588152
    18  H    3.365542   2.190423   3.290120   3.845812   4.230879
    19  H    5.319233   3.494486   4.541596   3.868596   4.640503
    20  H    4.891082   2.800765   4.137824   2.284057   3.146209
                   11         12         13         14         15
    11  H    0.000000
    12  H    3.697553   0.000000
    13  C    2.111432   2.910332   0.000000
    14  C    4.563948   2.073249   4.071560   0.000000
    15  H    4.837403   3.060634   4.629393   1.083037   0.000000
    16  H    5.467054   2.394689   4.674771   1.082541   1.840738
    17  C    3.203379   3.725337   1.327239   4.576649   5.067397
    18  H    2.497497   2.836932   1.088327   4.464981   5.187143
    19  H    4.092778   4.232412   2.104542   5.271936   5.871372
    20  H    3.552316   4.290204   2.113706   4.670565   4.951000
                   16         17         18         19         20
    16  H    0.000000
    17  C    5.038240   0.000000
    18  H    4.955495   2.079565   0.000000
    19  H    5.560906   1.082066   2.410627   0.000000
    20  H    5.181833   1.083141   3.063214   1.839919   0.000000
 Symmetry turned off by external request.
 Stoichiometry    C8H12
 Framework group  C1[X(C8H12)]
 Deg. of freedom    54
 Full point group                 C1      NOp   1
 Rotational constants (GHZ):           2.7917398           1.6970516           1.3160323
 Standard basis: def2TZVP (5D, 7F)
 The following finite field(s) will be applied:
 An electric field of             -0.0046 -0.0016 -0.0011
   320 basis functions,   504 primitive gaussians,   360 cartesian basis functions
    30 alpha electrons       30 beta electrons
       nuclear repulsion energy       360.3440126603 Hartrees.
 NAtoms=   20 NActive=   20 NUniq=   20 SFac= 1.00D+00 NAtFMM=   60 NAOKFM=F Big=F
 Integral buffers will be    131072 words long.
 Raffenetti 2 integral format.
 Two-electron integral symmetry is turned off.
 One-electron integrals computed using PRISM.
   1 Symmetry operations used in ECPInt.
 ECPInt:  NShTT=    9316 NPrTT=   27240 LenC2=    9174 LenP2D=   21657.
 LDataN:  DoStor=T MaxTD1= 6 Len=  172
 NBasis=   320 RedAO= T EigKep=  3.38D-05  NBF=   320
 NBsUse=   320 1.00D-06 EigRej= -1.00D+00 NBFU=   320
 The nuclear repulsion energy is now       359.4249915261 hartrees.
 Initial guess from the checkpoint file:  "checkpoint.chk"
 B after Tr=    -0.005697   -0.003162    0.001776
         Rot=    0.999999    0.000584   -0.000944   -0.000063 Ang=   0.13 deg.
 Requested convergence on RMS density matrix=1.00D-08 within 128 cycles.
 Requested convergence on MAX density matrix=1.00D-06.
 Requested convergence on             energy=1.00D-06.
 No special actions if energy rises.
 SCF Done:  E(RB3LYP) =  -312.117405328     A.U. after    7 cycles
            NFock=  7  Conv=0.39D-08     -V/T= 2.0056
   1 Symmetry operations used in ECPInt.
 ECPInt:  NShTT=    9316 NPrTT=   27240 LenC2=    9174 LenP2D=   21657.
 LDataN:  DoStor=T MaxTD1= 7 Len=  274
 Calling FoFJK, ICntrl=      2127 FMM=F ISym2X=0 I1Cent= 0 IOpClX= 0 NMat=1 NMatS=1 NMatT=0.
 -------------------------------------------------------------------
 Center     Atomic                   Forces (Hartrees/Bohr)
 Number     Number              X              Y              Z
 -------------------------------------------------------------------
      1        1          -0.000333335   -0.000001540    0.000018845
      2        6           0.000302473   -0.000224393    0.000052303
      3        6           0.000024903    0.000228168   -0.000031779
      4        6           0.000039738    0.000032799   -0.000020463
      5        1          -0.000001807   -0.000011976   -0.000022243
      6        1           0.000008646   -0.000013094   -0.000012400
      7        6          -0.000053269   -0.000039362    0.000011482
      8        6           0.000030287    0.000018082    0.000008412
      9        1           0.000009437   -0.000016250   -0.000015969
     10        1          -0.000011713    0.000007496    0.000005581
     11        1           0.000004692    0.000013987    0.000020971
     12        1          -0.000013807    0.000007966   -0.000009696
     13        6          -0.000013130   -0.000015129    0.000019715
     14        6           0.000054000   -0.000000328   -0.000000208
     15        1          -0.000031315    0.000008776   -0.000000156
     16        1          -0.000029824    0.000003012   -0.000007401
     17        6           0.000013461   -0.000000730    0.000021409
     18        1           0.000008720    0.000002608   -0.000003344
     19        1           0.000004990    0.000005454   -0.000025667
     20        1          -0.000013147   -0.000005546   -0.000009393
 -------------------------------------------------------------------
 Cartesian Forces:  Max     0.000333335 RMS     0.000074047
 -----------------------------------------------------------------------------------------------
                       Internal Coordinate Forces (Hartree/Bohr or radian)
  Cent   Atom   N1       Length/X         N2         Alpha/Y        N3         Beta/Z          J
 -----------------------------------------------------------------------------------------------
      1  H 
      2  C        1  -0.000019(     1)
      3  C        2  -0.000025(     2)      1  -0.000045(    20)
      4  C        2   0.000016(     3)      1  -0.000109(    21)      3  -0.000134(    38)     0
      5  H        2   0.000003(     4)      1  -0.000050(    22)      3   0.000012(    39)     0
      6  H        4  -0.000013(     5)      2  -0.000030(    23)      1   0.000051(    40)     0
[...]
 -0.00044065,0.00085566,-0.00337994,-0.00103741,0.00102515,-0.00023202,
 -0.07850375,-0.01114192,0.00882846,0.00005106,0.00032943,-0.00039002,-
 0.00189566,-0.02606170,0.01747864,0.00798822,0.01691589,-0.00877123,0.
 16689148,-0.00094096,0.00226054,0.00214884,-0.00383197,-0.02670857,0.0
 0979405,-0.00028364,-0.00015954,-0.00027717,-0.01691237,-0.17821894,0.
 04483756,0.00215020,-0.00266776,-0.00051246,-0.00043503,-0.00060690,0.
 00415532,0.00981260,-0.00296822,0.00718510,0.01883000,0.55767796,-0.00
 049354,0.00114851,-0.00107060,-0.00480912,-0.01378302,0.01647188,-0.00
 017467,-0.00190518,-0.00080967,0.01423529,0.04578487,-0.11114429,0.001
 42425,-0.00466564,-0.00223379,0.00331186,0.01654630,-0.01259502,-0.001
 69835,0.02205517,-0.02119416,-0.08198190,0.01497640,0.83442235,0.00227
 658,-0.00057813,0.00006911,-0.01911818,-0.01212710,0.01393010,-0.17457
 672,-0.07556991,0.10826663,0.00007708,-0.00008381,-0.00060874,-0.00404
 736,0.00153393,-0.00148696,0.00014992,0.00034465,-0.00016385,-0.004269
 26,-0.00167544,0.00501857,-0.00015561,-0.00004319,0.00070706,0.1911672
 2,0.00042604,0.00089540,0.00004775,-0.00322541,-0.00241046,0.00151516,
 -0.07597075,-0.09715661,0.06801387,-0.00069231,-0.00042077,0.00007915,
 -0.00070667,0.00058764,-0.00086722,-0.00024845,0.00000350,0.00014991,0
 .01486475,0.01037948,-0.01174092,0.00030843,-0.00011999,0.00011275,0.0
 8438348,0.10079508,0.00128598,-0.00043832,0.00138790,-0.01477284,-0.00
 922339,0.01103905,0.10884824,0.06760049,-0.13510394,-0.00013127,-0.000
 23931,-0.00058516,-0.00426252,0.00006877,-0.00088923,0.00013651,-0.000
 01812,0.00009286,0.01685003,0.01091035,-0.01664951,0.00011715,0.000271
 13,0.00013307,-0.11633931,-0.07091168,0.14694064,-0.00169897,0.0006440
 9,-0.00056502,-0.00510179,0.02111519,-0.00690339,-0.07553342,0.0742550
 4,-0.03276035,-0.00499293,0.00257925,0.00013192,0.00211835,-0.00054137
 ,0.00046163,-0.00080099,0.00118051,0.00019507,-0.00470285,0.00544810,-
 0.00155983,-0.00038672,-0.00022405,0.00076289,0.00892968,-0.01997183,0
 .00763481,0.08119820,-0.00032586,-0.00000661,-0.00056780,-0.00122821,0
 .00573418,-0.00281535,0.07490426,-0.25179079,0.08253819,0.00186702,-0.
 00058744,-0.00170955,0.00101468,0.00088835,0.00015862,0.00057945,-0.00
 024030,0.00060496,0.00257914,-0.01190936,0.00901258,0.00003961,0.00068
 918,-0.00011058,0.00429391,-0.01115554,0.00467188,-0.08437304,0.267770
 41,-0.00173508,0.00042775,-0.00074040,0.00056217,0.01194118,-0.0055918
 7,-0.03285880,0.08315099,-0.08455563,0.00077346,-0.00195410,-0.0005030
 5,0.00104020,-0.00057812,0.00142123,0.00062201,0.00023890,0.00061774,0
 .00464208,-0.01903153,0.01090832,0.00038166,0.00031139,-0.00006678,-0.
 00669360,0.01628002,-0.00612887,0.03312498,-0.09090493,0.08370512,-0.0
 0000333,0.00008935,0.00023478,-0.00065136,0.00017537,-0.00009060,-0.00
 827748,-0.00699811,0.01374416,0.00448320,0.01463585,-0.02159401,0.0003
 5239,-0.00025242,-0.00014996,0.00213574,0.00063335,0.00067945,-0.08067
 905,-0.05324390,0.08111739,-0.00290433,-0.00150572,-0.00346070,-0.0007
 0512,0.00220771,0.00228971,0.00067125,-0.00038665,-0.00090160,0.096650
 33,0.00005756,-0.00002747,0.00024606,0.00048880,-0.00019166,0.00045060
 ,0.01047146,0.00983069,-0.01817232,-0.00225427,-0.00688886,0.01075781,
 -0.00023359,0.00011564,-0.00012865,-0.00052264,0.00083914,-0.00098002,
 -0.05436572,-0.11035807,0.09480962,0.00228153,0.00074063,0.00136960,0.
 00081829,-0.00216519,-0.00393107,0.00003499,0.00158700,0.00094062,0.05
 843326,0.12137347,-0.00025323,-0.00021077,0.00011653,0.00008995,0.0004
 0960,0.00112109,0.00917278,0.00783615,-0.01426447,0.00419799,0.0101943
 9,-0.01430682,-0.00045562,-0.00053476,-0.00042836,0.00000408,0.0004966
 8,0.00183725,0.07849912,0.09247090,-0.19000193,-0.00244158,-0.00181749
 ,-0.00191868,-0.00039492,-0.00249164,-0.00217918,0.00016411,-0.0000638
 3,0.00148476,-0.08253295,-0.10071644,0.20850031,0.00007199,0.00001167,
 -0.00004271,0.00105535,0.00052993,0.00089517,0.00028528,-0.00033033,0.
 00007774,0.00235648,-0.00347440,-0.00259488,-0.00007883,0.00013351,0.0
 0010457,0.00032032,0.00083505,-0.00049248,0.00083115,-0.00062590,0.000
 66763,-0.04176236,0.00190314,0.00404221,0.00003021,0.00005838,-0.00001
 099,0.00013894,0.00002988,0.00005671,-0.00007087,-0.00010847,-0.000022
 71,0.02684721,-0.00008615,0.00035244,-0.00017780,-0.00280030,-0.001721
 41,0.00400758,-0.00031475,0.00026727,-0.00021359,0.00224006,-0.0225341
 3,-0.01519230,0.00069188,-0.00137976,-0.00049766,-0.00069584,0.0006665
 8,0.00038158,-0.00026148,0.00077762,-0.00062590,0.00437770,-0.23918454
 ,-0.12530975,0.00008948,-0.00001497,0.00003368,0.00011548,0.00005807,0
 .00012138,0.00001807,0.00003744,0.00008295,-0.00271558,0.25496962,0.00
 009057,0.00001933,0.00012376,0.00088263,0.00244505,-0.00186334,0.00018
 752,-0.00013902,0.00013728,-0.00101299,0.01443458,0.01027025,-0.000260
 23,0.00080187,0.00031679,0.00016865,-0.00090276,0.00057007,-0.00021649
 ,-0.00080251,0.00089268,0.00516705,-0.12093053,-0.13776951,-0.00007816
 ,0.00000303,-0.00006939,-0.00001638,-0.00004747,-0.00005269,0.00015301
 ,-0.00007191,0.00006756,-0.00687275,0.13272766,0.15086546,0.00115837,-
 0.00038932,0.00054758,-0.00096589,0.00062174,0.00007057,0.01232063,0.0
 1000823,-0.00131748,-0.01666021,-0.01636055,-0.00798094,0.00010904,-0.
 00006351,0.00008599,-0.00125928,-0.00007897,-0.00105425,-0.12437007,-0
 .05007067,-0.01789387,0.00110752,-0.00085902,0.00046203,-0.00015784,-0
 .00077246,-0.00016352,-0.00032888,0.00160305,0.00205626,-0.01251954,-0
 .01441699,-0.00549421,0.00016775,0.00001810,-0.00026748,0.81018073,-0.
 00072816,0.00102560,0.00075682,0.00100856,-0.00083600,-0.00030811,-0.0
 0992053,-0.01372239,-0.00629858,-0.00147318,0.01049303,-0.00574917,-0.
 00011862,0.00018458,0.00011383,0.00213469,0.00003221,0.00171992,-0.045
 33709,-0.16047681,-0.03904479,0.00038157,0.00194509,0.00035638,-0.0009
 4090,0.00122628,0.00161125,-0.00044887,-0.00040392,-0.00058978,-0.0136
 1801,-0.01315261,-0.00691036,0.00034748,-0.00029953,0.00013836,0.05717
 978,0.42418339,-0.00095449,-0.00078486,-0.00039562,-0.00063939,-0.0019
 7121,-0.00467706,-0.01044674,-0.01349642,-0.00783403,-0.00831901,-0.01
 076929,-0.00583120,-0.00035472,-0.00042402,-0.00025824,-0.00032096,-0.
 00025353,-0.00016266,-0.01886346,-0.04432653,-0.09529761,-0.00056685,0
 .00104326,0.00073492,-0.00041590,0.00018996,0.00190061,-0.00026224,-0.
 00054218,-0.00056279,0.01414983,0.01829915,0.01069786,-0.00010277,-0.0
 0027506,-0.00030052,-0.13576734,0.18441498,0.32357967,-0.00017226,0.00
 004072,0.00002851,0.00018912,0.00003172,-0.00013707,-0.00053757,-0.000
 39002,0.00035764,0.00768211,-0.00316676,0.00686001,0.00004394,0.000016
 94,-0.00009220,-0.00000530,0.00027418,-0.00042086,-0.00234174,0.000044
 42,-0.00119930,-0.05813283,-0.00689101,0.06286008,0.00030174,0.0001284
 0,-0.00020402,0.00021309,-0.00002921,-0.00019356,0.00043597,-0.0001037
 8,0.00010475,0.00642676,-0.00057638,0.00153084,-0.00046578,0.00016664,
 -0.00025600,0.11926966,-0.00014966,-0.00124915,0.00071909,-0.00058912,
 0.00169592,0.00037303,0.00029399,0.00036723,0.00054845,-0.00319803,0.0
 0018230,0.02973446,0.00013664,0.00005001,0.00024467,-0.00109031,-0.002
 99864,0.00241972,-0.00223207,-0.00277945,0.00195621,-0.00811284,-0.117
 53794,0.04442619,0.00011775,-0.00023465,0.00006520,0.00005326,-0.00006
 151,-0.00008570,0.00118203,-0.00043308,0.00075860,0.00345567,0.0045981
 6,-0.02904457,-0.00029159,-0.00080831,-0.00081856,0.03002026,0.6371393
 4,-0.00030370,-0.00017530,0.00004754,-0.00005742,0.00009046,-0.0006274
 8,0.00033710,0.00027208,-0.00001355,0.00336097,0.01166584,-0.01890105,
 0.00008971,-0.00027256,-0.00019713,-0.00071362,0.00059418,0.00124121,0
 .00299719,-0.00088466,0.00223975,0.06009579,0.03574097,-0.53405959,-0.
 00043041,0.00013357,0.00019529,-0.00033056,0.00008405,0.00022341,-0.00
 049905,0.00009681,-0.00015169,0.00326397,0.00309873,-0.01890791,0.0005
 3676,0.00029179,0.00009252,-0.09438821,-0.01941495,0.82649577,0.000504
 77,-0.00018178,-0.00001192,-0.00040936,-0.00033821,-0.00031577,0.00006
 299,0.00005368,-0.00025816,-0.00731832,0.00103586,-0.00100345,-0.00002
 864,-0.00004810,-0.00000117,-0.00016342,-0.00084959,0.00102184,0.00049
 110,0.00083044,-0.00061981,0.00555334,0.00340534,0.00278790,-0.0002253
 7,0.00005039,-0.00003866,-0.00008133,-0.00004013,0.00001633,-0.0002966
 0,0.00016029,-0.00015496,0.01144813,-0.00086305,0.00195864,0.00034522,
 -0.00002267,0.00006034,-0.03619129,0.00914120,0.01106537,0.02420459,0.
 00003303,-0.00185488,0.00134816,0.00008485,-0.00074271,0.00135748,-0.0
 0006730,0.00008472,-0.00008119,0.00022699,-0.00084760,0.00062804,-0.00
 015664,0.00025202,-0.00005891,0.00008687,0.00007818,-0.00025018,0.0000
 4792,-0.00000752,-0.00013947,0.00002349,0.00603620,-0.00003919,0.00000
 705,0.00003710,-0.00004337,-0.00006520,-0.00001704,-0.00005061,-0.0000
 0903,0.00002521,-0.00005078,-0.00049406,0.00117603,0.00106472,-0.00002
 184,0.00012304,-0.00000145,0.00871510,-0.22807210,-0.13436366,-0.00986
 218,0.23969492,0.00001190,0.00134654,0.00059340,-0.00008129,-0.0000059
 7,-0.00059491,-0.00017468,-0.00002532,0.00002661,-0.00125469,-0.001557
 74,0.00141391,-0.00003968,-0.00000900,0.00053206,-0.00010038,-0.000045
 82,0.00019426,0.00027963,0.00001640,-0.00000683,0.00164033,-0.02763577
 ,-0.01661370,-0.00011761,0.00003816,-0.00008073,0.00002827,-0.00000176
 ,0.00012052,-0.00006408,0.00006760,-0.00002487,0.00237096,0.00119689,-
 0.00476458,-0.00002425,-0.00005017,-0.00006507,0.01067269,-0.13051645,
 -0.15936363,-0.01258376,0.14724480,0.16941546,-0.00008946,0.00001369,-
 0.00018514,0.00018460,0.00033352,0.00022787,0.00012470,0.00013829,0.00
 014980,0.01303346,-0.00040445,0.00185635,-0.00000297,-0.00005712,-0.00
 000723,0.00007381,0.00195315,-0.00153862,-0.00109305,-0.00178657,0.001
 30551,0.00286300,-0.00388422,0.00153349,0.00003787,-0.00004830,-0.0000
 2522,-0.00000790,-0.00000796,-0.00005106,0.00051569,-0.00038833,0.0003
 8543,-0.00780644,0.00057224,-0.00104797,-0.00039259,-0.00012561,-0.000
 11539,-0.03717315,-0.02907523,0.01543860,0.00222011,0.00143940,-0.0005
 7861,0.02749180,0.00000311,0.00035886,0.00031007,-0.00008884,0.0000604
 0,-0.00023575,-0.00014841,-0.00000760,0.00005788,-0.00065767,0.0012311
 9,-0.00072597,-0.00001521,-0.00002930,0.00021729,-0.00000690,-0.000163
 61,0.00028744,0.,0.00000854,0.00008333,-0.00010092,0.00020138,-0.00128
 904,-0.00002626,0.00000463,-0.00003299,0.00002827,-0.00001133,0.000057
 56,0.00005702,0.00001819,-0.00000128,0.00058158,0.00136827,0.00026245,
 0.00000764,-0.00000734,0.00000349,-0.02851716,-0.29063631,0.10328374,-
 0.00239872,-0.01594657,0.00976970,0.03124145,0.30349822,-0.00004280,0.
 00029330,0.00049566,0.00010169,-0.00075835,-0.00022716,-0.00000840,-0.
 00006075,0.00003600,0.00175370,-0.00223930,-0.00304148,-0.00002055,0.0
 0007400,0.00025499,0.00023079,0.00087953,-0.00069896,0.00047450,0.0003
 1480,-0.00034346,0.00375539,0.03166484,-0.01201451,-0.00004175,0.00000
 058,-0.00001287,-0.00001508,0.00003836,0.00004308,-0.00025633,0.000059
 68,-0.00013553,-0.00117476,0.00014604,0.00102958,0.00000211,0.00015970
 ,0.00012147,0.01460819,0.09819053,-0.09845319,-0.00196282,-0.01658597,
 0.00906187,-0.01730412,-0.11207783,0.10393715,0.00012475,-0.00022794,-
 0.00017463,-0.00029923,0.00005014,0.00052025,0.00019756,0.00125659,-0.
 00035655,0.00252369,-0.00071469,0.00252477,-0.00020627,0.00007978,-0.0
 0005383,-0.00025160,0.00009086,-0.00025380,-0.02284890,-0.01117695,-0.
 00163346,-0.00010241,-0.00056047,0.00031584,0.00019694,-0.00051988,0.0
 0027395,0.00028271,-0.00003787,-0.00029358,0.00077853,-0.00009420,-0.0
 0101008,-0.00019024,0.00025570,0.00000060,-0.52894899,-0.05785444,0.08
 171871,0.00031656,0.00033958,-0.00025465,-0.00007843,-0.00001791,0.000
 05273,0.00001966,0.00002963,-0.00007596,0.81761430,0.00013045,-0.00028
 118,-0.00024384,-0.00042288,0.00019980,-0.00023354,-0.00067801,0.00107
 575,0.00128704,-0.00022562,-0.00271383,0.00144595,0.00003442,0.0000596
 1,-0.00006147,-0.00065238,0.00002302,-0.00057819,-0.02902089,0.0001494
 6,0.00068467,0.00026805,-0.00101865,0.00032228,-0.00001000,-0.00018039
 ,-0.00039968,0.00011603,-0.00009453,0.00004939,-0.00207181,-0.00265467
 ,-0.00060532,-0.00021295,0.00052745,-0.00001110,-0.06244039,-0.0982322
 6,-0.01968942,0.00029827,0.00062303,-0.00032024,-0.00010017,-0.0000163
 6,0.00008243,0.00002987,0.00003918,-0.00010844,0.09242733,0.46559705,0
 .00011003,-0.00000681,-0.00005919,-0.00020275,0.00005395,-0.00002876,-
 0.00016734,0.00097594,0.00033698,-0.00265324,-0.00095537,-0.00151843,0
 .00002040,0.00001436,0.00002009,-0.00033770,-0.00003004,-0.00022821,-0
 .01082380,-0.00078214,0.00930828,-0.00030470,-0.00047505,-0.00008884,-
 0.00056695,-0.00021258,-0.00031479,-0.00015085,-0.00024024,0.00028133,
 -0.00180896,-0.00192083,-0.00038410,0.00010841,-0.00001903,-0.00020830
 ,0.07727725,-0.02178874,-0.08666838,-0.00017216,0.00005423,0.00015246,
 0.00012466,-0.00001479,0.00001988,-0.00006231,0.00001594,-0.00001459,-
 0.11389867,0.23849932,0.31637120,-0.00021469,0.00011162,-0.00005477,0.
 00030931,-0.00016959,-0.00002231,-0.00176596,-0.00242037,-0.00021758,0
 .00028305,0.00103057,0.00019656,-0.00001393,0.00002205,0.00000510,-0.0
 0008064,-0.00003067,0.00006866,0.01044071,-0.01233491,-0.01114163,-0.0
 0013198,0.00037193,0.00004538,0.00001604,0.00016407,0.00000153,0.00000
 325,-0.00036549,-0.00038685,0.00063408,0.00055600,0.00058121,-0.000030
 70,-0.00002247,-0.00040112,-0.11256828,0.07444332,0.07587905,0.0000392
 8,-0.00005829,-0.00008086,-0.00001790,0.00002701,-0.00000265,0.0000110
 6,0.00001079,0.00001091,-0.01560995,0.02212268,0.02243952,0.12226605,-
 0.00041590,-0.00004212,-0.00024029,0.00003352,-0.00029780,-0.00098751,
 -0.00366405,-0.00036406,0.00062365,-0.00045119,-0.00003929,-0.00075002
 ,-0.00010628,-0.00002926,-0.00000198,-0.00033372,0.00003762,-0.0001284
 1,0.01256303,-0.01372677,-0.01458266,-0.00021573,-0.00033619,0.0000288
 7,0.00013515,0.00021836,0.00004690,0.00005275,-0.00031725,-0.00024055,
 0.00023828,0.00065300,0.00076994,0.00004361,0.00035766,0.00006766,0.07
 847998,-0.15901741,-0.10929918,0.00003346,0.00018457,-0.00001350,0.000
 00196,-0.00000437,0.00008294,0.00002342,0.00002583,-0.00000378,-0.0032
 3598,0.00621661,0.00064409,-0.08184568,0.16365668,-0.00010146,0.000008
 72,-0.00008524,0.00015383,0.00007704,0.00006180,-0.00107986,-0.0015501
 1,0.00190894,0.00022778,0.00048485,0.00049787,-0.00006626,0.00006763,0
 .00002541,-0.00024173,-0.00001256,-0.00016252,0.00640790,-0.00778019,-
 0.00565685,-0.00002396,-0.00053557,-0.00010685,0.00008360,0.00027008,0
 .00031957,-0.00008065,-0.00041792,-0.00065789,-0.00066263,-0.00059008,
 0.00051881,-0.00021524,0.00046304,-0.00033357,0.07932943,-0.10902021,-
 0.14279715,0.00000271,0.00035967,0.00001760,-0.00007562,0.00002377,0.0
 0011143,0.00005957,-0.00000486,-0.00001645,0.00301700,-0.00591778,0.00
 113990,-0.08757084,0.12437559,0.14195144,-0.00000950,-0.00003569,-0.00
 006305,0.00012974,0.00012035,-0.00021900,0.00008803,0.00012521,0.00049
 043,-0.00001042,-0.00020776,0.00026481,0.00007677,0.00001492,0.0000456
 5,-0.00006574,0.00001770,-0.00008286,-0.00272952,0.00002321,0.00400468
 ,-0.00000436,-0.00012829,0.00001797,0.00016782,0.00005162,-0.00036786,
 -0.00001034,-0.00009373,-0.00004880,-0.00086701,-0.00094237,-0.0003754
 6,-0.00004519,0.00003009,-0.00001982,-0.01365178,-0.02561264,-0.014484
 92,0.00002989,0.00009046,-0.00007151,0.00000121,0.00000414,0.00000520,
 -0.00000523,0.00000931,-0.00002940,-0.12189744,-0.10464713,-0.05571120
 ,0.00083151,0.00109227,-0.00147430,0.12821273,0.00003165,-0.00010251,-
 0.00003681,-0.00020451,0.00013647,-0.00011919,0.00031285,0.00033569,-0
 .00018890,-0.00088237,-0.00115031,-0.00004358,-0.00006753,-0.00001473,
 0.00001298,-0.00020407,-0.00002487,-0.00017437,-0.00128348,0.00550924,
 -0.00561262,0.00003996,-0.00020815,0.00017303,-0.00004811,-0.00002404,
 0.00025756,0.00002825,-0.00000038,0.00004111,0.00083184,0.00097482,0.0
 0054583,0.00002101,0.00005805,0.00002671,-0.00006140,0.00087889,-0.002
 14877,0.00000668,0.00003694,-0.00000735,-0.00000967,-0.00001214,0.0000
 1172,0.00001752,0.00000530,0.00000148,-0.10823438,-0.21246247,-0.10335
 323,0.00099259,-0.00185678,0.00430729,0.11794202,0.21716142,-0.0000316
 8,0.00015342,0.00004491,0.00012108,-0.00028921,0.00040181,-0.00038661,
 0.00007099,0.00007160,0.00108088,0.00144458,0.00017114,-0.00008774,0.0
 0006250,-0.00004381,0.00022384,0.00005743,0.00020509,0.00334857,-0.006
 08164,0.00792949,-0.00004824,0.00025670,-0.00021470,-0.00000862,0.0001
 1492,0.00031007,-0.00004874,0.00003423,-0.00001170,-0.00128116,-0.0011
 4760,-0.00070627,-0.00005740,-0.00004739,-0.00003840,0.00542800,0.0044
 0292,0.00568077,-0.00002546,-0.00003876,-0.00000610,0.00002592,0.00002
 026,0.00000891,-0.00003755,0.00001528,-0.00001427,-0.05883382,-0.10442
 177,-0.09790850,-0.00171116,0.00429786,-0.00441179,0.06089385,0.112889
 80,0.09234601,0.00001062,-0.00004739,0.00002207,0.00013511,0.00034757,
 -0.00029892,-0.00003425,-0.00072528,0.00025700,-0.00018057,-0.00007747
 ,0.00012518,0.00023038,-0.00002158,0.00005638,0.00006426,-0.00003094,-
 0.00002813,0.00102382,0.00225417,-0.00054214,0.00004485,0.00002674,0.0
 0011205,-0.00009564,-0.00048720,-0.00112170,0.00009064,-0.00002286,-0.
 00011293,0.00031751,0.00012817,-0.00006371,0.00000507,-0.00007280,0.00
 005387,-0.01310014,0.02053868,0.02006223,0.00007181,-0.00003372,-0.000
 05547,-0.00002080,-0.00000167,-0.00004004,-0.00000498,-0.00000871,-0.0
 0000532,-0.13162124,0.08505511,0.08678036,-0.00440028,-0.00242890,0.00
 231072,0.00975882,-0.00922884,-0.00856396,0.13770502,0.00009337,0.0000
 6897,0.00007863,-0.00010927,-0.00004746,0.00038732,-0.00042034,-0.0004
 4902,-0.00006949,0.00056475,0.00062457,-0.00003316,-0.00001752,0.00000
 928,-0.00002853,0.00010068,-0.00002498,0.00011811,0.00054378,-0.002445
 68,0.00356607,-0.00008124,0.00018441,-0.00019794,-0.00062082,-0.000264
 84,-0.00029928,-0.00002686,-0.00013118,-0.00012496,-0.00041650,-0.0003
 2360,-0.00016235,0.00001080,-0.00008030,-0.00004157,-0.00209182,0.0068
 6450,0.00084963,-0.00010249,-0.00006637,0.00010000,0.00003509,0.000013
 88,-0.00000918,0.00001526,-0.00001796,0.00001157,0.08814510,-0.1568566
 1,-0.11045898,-0.00260518,0.00468095,-0.00460842,0.01214628,-0.0092404
 3,-0.01179454,-0.09516308,0.15750185,0.00002250,-0.00009450,-0.0000230
 6,-0.00026080,0.00039178,-0.00004845,-0.00032071,0.00017062,-0.0000768
 7,-0.00070682,-0.00079901,0.00001491,0.00001322,0.00002359,0.00002650,
 -0.00010526,-0.00003473,-0.00012063,-0.00239860,0.00280634,-0.00524673
 ,0.00011473,-0.00020155,0.00013848,-0.00072829,-0.00072484,-0.00030539
 ,0.00018942,0.00027875,0.00006615,0.00093370,0.00056137,0.00015772,-0.
 00000066,0.00009895,0.00003476,0.00416737,-0.00420605,0.00204251,0.000
 06342,0.00006894,-0.00002423,-0.00003491,-0.00000767,0.00001602,-0.000
 00339,0.00000354,-0.00000733,0.08841517,-0.10978029,-0.14020804,0.0023
 6185,-0.00468963,0.00767553,0.00722559,-0.00658269,-0.00381427,-0.0989
 4754,0.12271707,0.13970238\\0.00037274,0.00005050,0.00000762,-0.000360
 21,0.00010418,0.00000900,-0.00000785,-0.00016536,0.00000251,-0.0000249
 9,-0.00000761,-0.00004091,-0.00000306,-0.00001301,0.00001272,0.0000163
 0,-0.00000717,0.00002406,0.00000336,0.00001181,0.00000447,-0.00001347,
 0.00000583,-0.00000517,0.00000424,0.00000764,0.00000043,0.00000128,0.0
 0000550,-0.00000615,0.00000911,-0.00000797,0.00000842,0.00002016,0.000
 00325,0.00000134,-0.00000969,0.00001055,-0.00002181,-0.00007815,0.0000
 1297,-0.00002138,0.00003768,0.00000544,0.00000935,0.00003790,-0.000001
 39,0.00000563,-0.00001830,0.00000181,-0.00002148,-0.00000148,-0.000007
 18,0.00000409,0.00000176,-0.00001242,0.00002042,0.00001268,0.00000262,
 0.00000686\\\@


 A FOOL CAN ASK MORE QUESTIONS THAN
 A WISE MAN CAN ANSWER.
 Job cpu time:       0 days  1 hours 42 minutes 33.5 seconds.
 Elapsed time:       0 days  0 hours  8 minutes 33.6 seconds.
 File lengths (MBytes):  RWF=    162 Int=      0 D2E=      0 Chk=     32 Scr=      1
 Normal termination of Gaussian 16 at Fri Jun 10 23:20:56 2022.
