 Entering Gaussian System, Link 0=g16
 Input=ts_zmat_field_N75.gjf
 Output=ts_zmat_field_N75.out
 Initial command:
 /software/gaussian/g16-a03/l1.exe "/local_scratch/9886854/Gau-18708.inp" -scrdir="/local_scratch/9886854/"
 Entering Link 1 = /software/gaussian/g16-a03/l1.exe PID=     18709.
  
 Copyright (c) 1988,1990,1992,1993,1995,1998,2003,2009,2016,
            Gaussian, Inc.  All Rights Reserved.
  
 This is part of the Gaussian(R) 16 program.  It is based on
 the Gaussian(R) 09 system (copyright 2009, Gaussian, Inc.),
 the Gaussian(R) 03 system (copyright 2003, Gaussian, Inc.),
 the Gaussian(R) 98 system (copyright 1998, Gaussian, Inc.),
 the Gaussian(R) 94 system (copyright 1995, Gaussian, Inc.),
 the Gaussian 92(TM) system (copyright 1992, Gaussian, Inc.),
 the Gaussian 90(TM) system (copyright 1990, Gaussian, Inc.),
 the Gaussian 88(TM) system (copyright 1988, Gaussian, Inc.),
 the Gaussian 86(TM) system (copyright 1986, Carnegie Mellon
 University), and the Gaussian 82(TM) system (copyright 1983,
 Carnegie Mellon University). Gaussian is a federally registered
 trademark of Gaussian, Inc.
  
 This software contains proprietary and confidential information,
 including trade secrets, belonging to Gaussian, Inc.
  
 This software is provided under written license and may be
 used, copied, transmitted, or stored only in accord with that
 written license.
  
 The following legend is applicable only to US Government
 contracts under FAR:
  
                    RESTRICTED RIGHTS LEGEND
  
 Use, reproduction and disclosure by the US Government is
 subject to restrictions as set forth in subparagraphs (a)
 and (c) of the Commercial Computer Software - Restricted
 Rights clause in FAR 52.227-19.
  
 Gaussian, Inc.
 340 Quinnipiac St., Bldg. 40, Wallingford CT 06492
  
  
 ---------------------------------------------------------------
 Warning -- This program may not be used in any manner that
 competes with the business of Gaussian, Inc. or will provide
 assistance to any competitor of Gaussian, Inc.  The licensee
 of this program is prohibited from giving any competitor of
 Gaussian, Inc. access to this program.  By using this program,
 the user acknowledges that Gaussian, Inc. is engaged in the
 business of creating and licensing software in the field of
 computational chemistry and represents and warrants to the
 licensee that it is not a competitor of Gaussian, Inc. and that
 it will not use this program in any manner prohibited above.
 ---------------------------------------------------------------
  

 Cite this work as:
 Gaussian 16, Revision A.03,
 M. J. Frisch, G. W. Trucks, H. B. Schlegel, G. E. Scuseria, 
 M. A. Robb, J. R. Cheeseman, G. Scalmani, V. Barone, 
 G. A. Petersson, H. Nakatsuji, X. Li, M. Caricato, A. V. Marenich, 
 J. Bloino, B. G. Janesko, R. Gomperts, B. Mennucci, H. P. Hratchian, 
 J. V. Ortiz, A. F. Izmaylov, J. L. Sonnenberg, D. Williams-Young, 
 F. Ding, F. Lipparini, F. Egidi, J. Goings, B. Peng, A. Petrone, 
 T. Henderson, D. Ranasinghe, V. G. Zakrzewski, J. Gao, N. Rega, 
 G. Zheng, W. Liang, M. Hada, M. Ehara, K. Toyota, R. Fukuda, 
 J. Hasegawa, M. Ishida, T. Nakajima, Y. Honda, O. Kitao, H. Nakai, 
 T. Vreven, K. Throssell, J. A. Montgomery, Jr., J. E. Peralta, 
 F. Ogliaro, M. J. Bearpark, J. J. Heyd, E. N. Brothers, K. N. Kudin, 
 V. N. Staroverov, T. A. Keith, R. Kobayashi, J. Normand, 
 K. Raghavachari, A. P. Rendell, J. C. Burant, S. S. Iyengar, 
 J. Tomasi, M. Cossi, J. M. Millam, M. Klene, C. Adamo, R. Cammi, 
 J. W. Ochterski, R. L. Martin, K. Morokuma, O. Farkas, 
 J. B. Foresman, and D. J. Fox, Gaussian, Inc., Wallingford CT, 2016.
 
 ******************************************
 Gaussian 16:  ES64L-G16RevA.03 25-Dec-2016
                18-Mar-2022 
 ******************************************
 %nprocshared=12
 Will use up to   12 processors via shared memory.
 %chk=checkpoint.chk
 %mem=12GB
 ----------------------------------------------------------------------
 # Opt=(TS, CalcFC, noeigentest, Z-matrix, MaxStep=10) geom=allcheckpoi
 nt guess=read Field=read NoSymm B3LYP/Def2TZVP
 ----------------------------------------------------------------------
 1/5=1,8=10,10=4,11=1,18=40,26=3,29=7,38=1/1,3;
 2/12=2,15=1,29=3,40=1/2;
 3/5=44,7=101,11=2,14=-6,25=1,30=1,71=2,74=-5,116=-2,140=1/1,2,3;
 4/5=1/1;
 5/5=2,38=6/2;
 8/6=4,10=90,11=11/1;
 11/6=1,8=1,9=11,15=111,16=1,31=1/1,2,10;
 10/6=1,13=1,31=1/2;
 6/7=2,8=2,9=2,10=2,28=1/1;
 7/10=1,18=20,25=1,30=1/1,2,3,16;
 1/5=1,8=10,10=4,11=1,18=40,26=3/3(2);
 2/15=1,29=3/2;
 99//99;
 2/15=1,29=3/2;
 3/5=44,7=101,11=2,14=-2,25=1,30=1,71=1,74=-5/1,2,3;
 4/5=5,16=3,69=1/1;
 5/5=2,38=5/2;
 7/30=1/1,2,3,16;
 1/5=1,8=10,11=1,18=40,26=3/3(-5);
 2/15=1,29=3/2;
 6/7=2,8=2,9=2,10=2,19=2,28=1/1;
 99/9=1/99;
 Structure from the checkpoint file:  "checkpoint.chk"
 -----------------
 ts_zmat_initalOpt
 -----------------
 Charge =  0 Multiplicity = 1
 Z-Matrix found in chk file.
 H
 C,1,R2
 C,2,R3,1,A3
 C,2,R4,1,A4,3,D4,0
 H,3,R5,2,A5,1,D5,0
 C,3,R6,2,A6,5,D6,0
 H,4,R7,2,A7,1,D7,0
 H,4,R8,2,A8,7,D8,0
 H,6,R9,3,A9,2,D9,0
 C,6,R10,3,A10,9,D10,0
 H,10,R11,6,A11,3,D11,0
 O,10,R12,6,A12,11,D12,0
      Variables:
 R2=1.08262215
 R3=1.3851444
 R4=1.39334632
 R5=1.08535533
 R6=1.4033096
 R7=1.08278459
 R8=1.08143972
 R9=1.08175322
 R10=1.40753319
 R11=1.09705598
 R12=1.26173939
 A3=120.50617574
 A4=121.32034376
 A5=119.88008382
 A6=120.93730204
 A7=120.53676481
 A8=118.37456121
 A9=119.2518119
 A10=119.03636228
 A11=115.6778277
 A12=128.1681375
 D4=170.79009675
 D5=-17.90186719
 D6=167.78111662
 D7=-8.07567202
 D8=151.70506059
 D9=-175.28664648
 D10=153.42077858
 D11=-142.76898576
 D12=171.36257006
 Recover connectivity data from disk.

 GradGradGradGradGradGradGradGradGradGradGradGradGradGradGradGradGradGrad
 Berny optimization.
 Initialization pass.
                       ----------------------------
                       !    Initial Parameters    !
                       ! (Angstroms and Degrees)  !
 ----------------------                            ----------------------
 !      Name          Value   Derivative information (Atomic Units)     !
 ------------------------------------------------------------------------
 !       R2          1.0826   calculate D2E/DX2 analytically            !
 !       R3          1.3851   calculate D2E/DX2 analytically            !
 !       R4          1.3933   calculate D2E/DX2 analytically            !
 !       R5          1.0854   calculate D2E/DX2 analytically            !
 !       R6          1.4033   calculate D2E/DX2 analytically            !
 !       R7          1.0828   calculate D2E/DX2 analytically            !
 !       R8          1.0814   calculate D2E/DX2 analytically            !
 !       R9          1.0818   calculate D2E/DX2 analytically            !
 !       R10         1.4075   calculate D2E/DX2 analytically            !
 !       R11         1.0971   calculate D2E/DX2 analytically            !
 !       R12         1.2617   calculate D2E/DX2 analytically            !
 !       A3        120.5062   calculate D2E/DX2 analytically            !
 !       A4        121.3203   calculate D2E/DX2 analytically            !
 !       A5        119.8801   calculate D2E/DX2 analytically            !
 !       A6        120.9373   calculate D2E/DX2 analytically            !
 !       A7        120.5368   calculate D2E/DX2 analytically            !
 !       A8        118.3746   calculate D2E/DX2 analytically            !
 !       A9        119.2518   calculate D2E/DX2 analytically            !
 !       A10       119.0364   calculate D2E/DX2 analytically            !
 !       A11       115.6778   calculate D2E/DX2 analytically            !
 !       A12       128.1681   calculate D2E/DX2 analytically            !
 !       D4        170.7901   calculate D2E/DX2 analytically            !
 !       D5        -17.9019   calculate D2E/DX2 analytically            !
 !       D6        167.7811   calculate D2E/DX2 analytically            !
 !       D7         -8.0757   calculate D2E/DX2 analytically            !
 !       D8        151.7051   calculate D2E/DX2 analytically            !
 !       D9       -175.2866   calculate D2E/DX2 analytically            !
 !       D10       153.4208   calculate D2E/DX2 analytically            !
 !       D11      -142.769    calculate D2E/DX2 analytically            !
 !       D12       171.3626   calculate D2E/DX2 analytically            !
 ------------------------------------------------------------------------
 Trust Radius=1.00D-01 FncErr=1.00D-07 GrdErr=1.00D-06 EigMax=2.50D+02 EigMin=1.00D-04
 Number of steps in this run=     40 maximum allowed number of steps=    100.
 Search for a saddle point of order  1.
 GradGradGradGradGradGradGradGradGradGradGradGradGradGradGradGradGradGrad

 ---------------------------------------------------------------------------------------------------
                            Z-MATRIX (ANGSTROMS AND DEGREES)
   CD    Cent   Atom    N1       Length/X        N2       Alpha/Y        N3        Beta/Z          J
 ---------------------------------------------------------------------------------------------------
      1      1  H 
      2      2  C        1   1.082622(     1)
      3      3  C        2   1.385144(     2)      1  120.506(    12)
      4      4  C        2   1.393346(     3)      1  121.320(    13)      3  170.790(    22)      0
      5      5  H        3   1.085355(     4)      2  119.880(    14)      1  -17.902(    23)      0
      6      6  C        3   1.403310(     5)      2  120.937(    15)      5  167.781(    24)      0
      7      7  H        4   1.082785(     6)      2  120.537(    16)      1   -8.076(    25)      0
      8      8  H        4   1.081440(     7)      2  118.375(    17)      7  151.705(    26)      0
      9      9  H        6   1.081753(     8)      3  119.252(    18)      2 -175.287(    27)      0
     10     10  C        6   1.407533(     9)      3  119.036(    19)      9  153.421(    28)      0
     11     11  H       10   1.097056(    10)      6  115.678(    20)      3 -142.769(    29)      0
     12     12  O       10   1.261739(    11)      6  128.168(    21)     11  171.363(    30)      0
 ---------------------------------------------------------------------------------------------------
                         Z-Matrix orientation:                         
 ---------------------------------------------------------------------
 Center     Atomic      Atomic             Coordinates (Angstroms)
 Number     Number       Type             X           Y           Z
 ---------------------------------------------------------------------
      1          1           0        0.000000    0.000000    0.000000
      2          6           0        0.000000    0.000000    1.082622
      3          6           0        1.193405    0.000000    1.785765
      4          6           0       -1.174955    0.190510    1.806915
      5          1           0        2.113858   -0.289276    1.288692
      6          6           0        1.286470    0.604026    3.049002
      7          1           0       -2.091704    0.471877    1.304096
      8          1           0       -1.305516   -0.359944    2.728580
      9          1           0        2.248725    0.655964    3.540487
     10          6           0        0.346720    1.589166    3.406102
     11          1           0        0.737186    2.426285    3.997963
     12          8           0       -0.845578    1.709028    3.011078
 ---------------------------------------------------------------------
                    Distance matrix (angstroms):
                    1          2          3          4          5
     1  H    0.000000
     2  C    1.082622   0.000000
     3  C    2.147829   1.385144   0.000000
     4  C    2.163736   1.393346   2.376104   0.000000
     5  H    2.492550   2.143488   1.085355   3.363784   0.000000
     6  C    3.363966   2.426212   1.403310   2.787901   2.140386
     7  H    2.509693   2.155677   3.353597   1.082785   4.273915
     8  H    3.046158   2.131457   2.695008   1.081440   3.710848
     9  H    4.245245   3.395313   2.150125   3.865683   2.445864
    10  C    3.774546   2.836234   2.422358   2.613261   3.336877
    11  H    4.734344   3.863873   3.314938   3.668197   4.075494
    12  O    3.564038   2.711959   2.929099   1.965807   3.964605
                    6          7          8          9         10
     6  C    0.000000
     7  H    3.804500   0.000000
     8  H    2.783936   1.827340   0.000000
     9  H    1.081753   4.886170   3.784692   0.000000
    10  C    1.407533   3.407737   2.643473   2.122863   0.000000
    11  H    2.126703   4.367980   3.680630   2.372356   1.097056
    12  O    2.401686   2.448910   2.138222   3.311183   1.261739
                   11         12
    11  H    0.000000
    12  O    1.998385   0.000000
 Symmetry turned off by external request.
 Stoichiometry    C5H6O
 Framework group  C1[X(C5H6O)]
 Deg. of freedom    30
 Full point group                 C1      NOp   1
 Rotational constants (GHZ):           5.5346701           4.6773167           2.7010332
 Standard basis: def2TZVP (5D, 7F)
 The following finite field(s) will be applied:
 An electric field of             -0.0036  0.0005  0.0066
   222 basis functions,   354 primitive gaussians,   252 cartesian basis functions
    22 alpha electrons       22 beta electrons
       nuclear repulsion energy       217.8171562312 Hartrees.
 NAtoms=   12 NActive=   12 NUniq=   12 SFac= 1.00D+00 NAtFMM=   60 NAOKFM=F Big=F
 Integral buffers will be    131072 words long.
 Raffenetti 2 integral format.
 Two-electron integral symmetry is turned off.
 One-electron integrals computed using PRISM.
   1 Symmetry operations used in ECPInt.
 ECPInt:  NShTT=    4095 NPrTT=   12396 LenC2=    4075 LenP2D=   10360.
 LDataN:  DoStor=T MaxTD1= 6 Len=  172
 NBasis=   222 RedAO= T EigKep=  1.16D-04  NBF=   222
 NBsUse=   222 1.00D-06 EigRej= -1.00D+00 NBFU=   222
 The nuclear repulsion energy is now       219.1025746143 hartrees.
 Initial guess from the checkpoint file:  "checkpoint.chk"
 B after Tr=     0.000000    0.000000    0.000000
         Rot=    1.000000    0.000000    0.000000    0.000000 Ang=   0.00 deg.
 Keep R1 ints in memory in canonical form, NReq=319363861.
 Requested convergence on RMS density matrix=1.00D-08 within 128 cycles.
 Requested convergence on MAX density matrix=1.00D-06.
 Requested convergence on             energy=1.00D-06.
 No special actions if energy rises.
 SCF Done:  E(RB3LYP) =  -269.396097144     A.U. after   11 cycles
            NFock= 11  Conv=0.54D-08     -V/T= 2.0050
 DoSCS=F DFT=T ScalE2(SS,OS)=  1.000000  1.000000
 Range of M.O.s used for correlation:     1   222
 NBasis=   222 NAE=    22 NBE=    22 NFC=     0 NFV=     0
 NROrb=    222 NOA=    22 NOB=    22 NVA=   200 NVB=   200

 **** Warning!!: The largest alpha MO coefficient is  0.19656203D+02

   1 Symmetry operations used in ECPInt.
 ECPInt:  NShTT=    4095 NPrTT=   12396 LenC2=    4075 LenP2D=   10360.
 LDataN:  DoStor=T MaxTD1= 7 Len=  274
 Symmetrizing basis deriv contribution to polar:
 IMax=3 JMax=2 DiffMx= 0.00D+00
 G2DrvN: will do    13 centers at a time, making    1 passes.
 Calling FoFCou, ICntrl=  3107 FMM=F I1Cent=   0 AccDes= 0.00D+00.
 End of G2Drv F.D. properties file   721 does not exist.
 End of G2Drv F.D. properties file   722 does not exist.
 End of G2Drv F.D. properties file   788 does not exist.
          IDoAtm=111111111111
          Differentiating once with respect to nuclear coordinates.
 Keep R1 ints in memory in canonical form, NReq=319333990.
          There are    39 degrees of freedom in the 1st order CPHF.  IDoFFX=6 NUNeed=     0.
     33 vectors produced by pass  0 Test12= 1.13D-14 2.56D-09 XBig12= 1.88D-01 2.58D-01.
 AX will form    33 AO Fock derivatives at one time.
     33 vectors produced by pass  1 Test12= 1.13D-14 2.56D-09 XBig12= 3.16D-02 4.45D-02.
     33 vectors produced by pass  2 Test12= 1.13D-14 2.56D-09 XBig12= 4.37D-04 3.10D-03.
     33 vectors produced by pass  3 Test12= 1.13D-14 2.56D-09 XBig12= 1.93D-06 2.10D-04.
     33 vectors produced by pass  4 Test12= 1.13D-14 2.56D-09 XBig12= 3.94D-09 8.78D-06.
     33 vectors produced by pass  5 Test12= 1.13D-14 2.56D-09 XBig12= 6.65D-12 3.79D-07.
      7 vectors produced by pass  6 Test12= 1.13D-14 2.56D-09 XBig12= 9.82D-15 1.80D-08.
 InvSVY:  IOpt=1 It=  1 EMax= 2.66D-15
 Solved reduced A of dimension   205 with    33 vectors.
 End of Minotr F.D. properties file   721 does not exist.
 End of Minotr F.D. properties file   722 does not exist.
 End of Minotr F.D. properties file   788 does not exist.

 **********************************************************************

            Population analysis using the SCF density.

 **********************************************************************

 Alpha  occ. eigenvalues --  -19.17275 -10.28231 -10.25096 -10.22078 -10.19977
 Alpha  occ. eigenvalues --  -10.19241  -1.07644  -0.85467  -0.78569  -0.69522
 Alpha  occ. eigenvalues --   -0.63594  -0.55473  -0.53642  -0.49945  -0.48786
 Alpha  occ. eigenvalues --   -0.47163  -0.42389  -0.41013  -0.40212  -0.35472
 Alpha  occ. eigenvalues --   -0.31807  -0.24340
 Alpha virt. eigenvalues --   -0.09709  -0.03000   0.02042   0.02475   0.04292
 Alpha virt. eigenvalues --    0.05269   0.06871   0.09155   0.10411   0.12526
 Alpha virt. eigenvalues --    0.15072   0.16850   0.17520   0.18145   0.20051
 Alpha virt. eigenvalues --    0.20558   0.22142   0.25064   0.25188   0.26358
 Alpha virt. eigenvalues --    0.27893   0.30803   0.31355   0.33439   0.35181
 Alpha virt. eigenvalues --    0.36909   0.37948   0.39204   0.39785   0.41067
 Alpha virt. eigenvalues --    0.41707   0.42765   0.43207   0.45537   0.46897
 Alpha virt. eigenvalues --    0.50081   0.51260   0.51711   0.54330   0.55593
 Alpha virt. eigenvalues --    0.59162   0.62903   0.65905   0.66738   0.72200
 Alpha virt. eigenvalues --    0.77176   0.79685   0.84234   0.84475   0.87011
 Alpha virt. eigenvalues --    0.90386   0.91050   0.93611   0.94140   0.95003
 Alpha virt. eigenvalues --    0.98341   1.01088   1.04374   1.07961   1.09425
 Alpha virt. eigenvalues --    1.12206   1.14529   1.16824   1.20871   1.20995
 Alpha virt. eigenvalues --    1.26240   1.28475   1.32042   1.36362   1.37033
 Alpha virt. eigenvalues --    1.40415   1.41331   1.43599   1.45273   1.48774
 Alpha virt. eigenvalues --    1.50402   1.54918   1.57440   1.60626   1.61985
 Alpha virt. eigenvalues --    1.64339   1.66025   1.70832   1.75082   1.75952
 Alpha virt. eigenvalues --    1.78687   1.80116   1.82655   1.86083   1.88776
 Alpha virt. eigenvalues --    1.91594   1.94386   2.02179   2.04312   2.08031
 Alpha virt. eigenvalues --    2.12302   2.12763   2.16581   2.18240   2.23265
 Alpha virt. eigenvalues --    2.25327   2.29462   2.34764   2.38212   2.41568
 Alpha virt. eigenvalues --    2.46922   2.48907   2.50082   2.51969   2.53449
 Alpha virt. eigenvalues --    2.56093   2.58930   2.60358   2.62999   2.65828
 Alpha virt. eigenvalues --    2.67502   2.68153   2.74472   2.75483   2.76885
 Alpha virt. eigenvalues --    2.79313   2.81167   2.82211   2.83795   2.86679
 Alpha virt. eigenvalues --    2.89086   2.92308   2.93400   2.95355   2.99144
 Alpha virt. eigenvalues --    3.00166   3.01938   3.03916   3.09206   3.10960
 Alpha virt. eigenvalues --    3.12201   3.14287   3.16845   3.20475   3.20915
 Alpha virt. eigenvalues --    3.22046   3.25020   3.26289   3.32506   3.33020
 Alpha virt. eigenvalues --    3.36628   3.39137   3.40795   3.43285   3.45433
 Alpha virt. eigenvalues --    3.46885   3.49788   3.55716   3.60770   3.61126
 Alpha virt. eigenvalues --    3.66070   3.82569   3.87722   3.89457   3.91210
 Alpha virt. eigenvalues --    3.95057   3.99463   4.00775   4.05349   4.08791
 Alpha virt. eigenvalues --    4.13589   4.15258   4.23115   4.28183   4.30056
 Alpha virt. eigenvalues --    4.36410   4.41373   4.45147   4.51665   4.62056
 Alpha virt. eigenvalues --    4.64244   4.69430   4.78407   4.83250   4.84002
 Alpha virt. eigenvalues --    5.03208   5.12447   5.21932   5.25772   5.48506
 Alpha virt. eigenvalues --    5.58219   5.95631   6.17861   6.30272   6.47509
 Alpha virt. eigenvalues --    6.69570   6.75272   6.94257   7.05089  22.03157
 Alpha virt. eigenvalues --   22.31436  22.47481  22.67508  22.84851  43.77636
          Condensed to atoms (all electrons):
               1          2          3          4          5          6
     1  H    0.510582   0.415858  -0.039945  -0.036518  -0.004055   0.007000
     2  C    0.415858   4.956620   0.502576   0.517762  -0.028982  -0.027960
     3  C   -0.039945   0.502576   4.879803  -0.086724   0.412782   0.448636
     4  C   -0.036518   0.517762  -0.086724   4.825671   0.008859  -0.014574
     5  H   -0.004055  -0.028982   0.412782   0.008859   0.509938  -0.044156
     6  C    0.007000  -0.027960   0.448636  -0.014574  -0.044156   5.304391
     7  H   -0.005848  -0.032626   0.009475   0.395133  -0.000226  -0.000767
     8  H    0.006849  -0.025295  -0.040286   0.410744   0.000116   0.040916
     9  H   -0.000177   0.007470  -0.041495   0.000090  -0.006329   0.397229
    10  C   -0.002221  -0.047117  -0.029100  -0.044089   0.001892   0.417140
    11  H   -0.000014  -0.007481   0.006798   0.005189  -0.000659  -0.118405
    12  O    0.000387  -0.036099   0.001765   0.088744  -0.000821  -0.140332
               7          8          9         10         11         12
     1  H   -0.005848   0.006849  -0.000177  -0.002221  -0.000014   0.000387
     2  C   -0.032626  -0.025295   0.007470  -0.047117  -0.007481  -0.036099
     3  C    0.009475  -0.040286  -0.041495  -0.029100   0.006798   0.001765
     4  C    0.395133   0.410744   0.000090  -0.044089   0.005189   0.088744
     5  H   -0.000226   0.000116  -0.006329   0.001892  -0.000659  -0.000821
     6  C   -0.000767   0.040916   0.397229   0.417140  -0.118405  -0.140332
     7  H    0.539197  -0.039985   0.000019   0.001129   0.000033   0.000482
     8  H   -0.039985   0.621801  -0.000049  -0.012073  -0.002184  -0.061380
     9  H    0.000019  -0.000049   0.568788  -0.034603  -0.000746   0.005995
    10  C    0.001129  -0.012073  -0.034603   4.675064   0.420818   0.505184
    11  H    0.000033  -0.002184  -0.000746   0.420818   0.639494  -0.036831
    12  O    0.000482  -0.061380   0.005995   0.505184  -0.036831   7.994819
 Mulliken charges:
               1
     1  H    0.148102
     2  C   -0.194726
     3  C   -0.024285
     4  C   -0.070287
     5  H    0.151641
     6  C   -0.269119
     7  H    0.133985
     8  H    0.100827
     9  H    0.103808
    10  C    0.147977
    11  H    0.093989
    12  O   -0.321912
 Sum of Mulliken charges =  -0.00000
 Mulliken charges with hydrogens summed into heavy atoms:
               1
     2  C   -0.046624
     3  C    0.127355
     4  C    0.164525
     6  C   -0.165310
    10  C    0.241966
    12  O   -0.321912
 APT charges:
               1
     1  H    0.101880
     2  C   -0.448257
     3  C   -0.325401
     4  C   -0.566980
     5  H    0.334291
     6  C   -0.580670
     7  H    0.329138
     8  H    0.521033
     9  H    0.669619
    10  C   -0.416156
    11  H    0.736050
    12  O   -0.354546
 Sum of APT charges =  -0.00000
 APT charges with hydrogens summed into heavy atoms:
               1
     2  C   -0.346377
     3  C    0.008890
     4  C    0.283191
     6  C    0.088948
    10  C    0.319894
    12  O   -0.354546
 Electronic spatial extent (au):  <R**2>=           1441.7939
 Charge=              0.0000 electrons
 Dipole moment (field-independent basis, Debye):
    X=              1.3702    Y=             -0.8644    Z=             -1.5974  Tot=              2.2752
 Quadrupole moment (field-independent basis, Debye-Ang):
   XX=            -32.9897   YY=            -39.5728   ZZ=            -41.3462
   XY=              2.8058   XZ=              4.7205   YZ=             -1.8672
 Traceless Quadrupole moment (field-independent basis, Debye-Ang):
   XX=              4.9798   YY=             -1.6032   ZZ=             -3.3766
   XY=              2.8058   XZ=              4.7205   YZ=             -1.8672
 Octapole moment (field-independent basis, Debye-Ang**2):
  XXX=            -11.8434  YYY=            -75.0581  ZZZ=           -271.4227  XYY=              1.1090
  XXY=            -26.6795  XXZ=            -81.5419  XZZ=             11.0475  YZZ=            -25.8431
  YYZ=            -90.1807  XYZ=             12.3323
 Hexadecapole moment (field-independent basis, Debye-Ang**3):
 XXXX=           -251.5127 YYYY=           -264.5768 ZZZZ=          -1476.1180 XXXY=             -0.7277
 XXXZ=            -40.9542 YYYX=             15.9558 YYYZ=           -232.4628 ZZZX=             -0.1025
 ZZZY=           -219.2899 XXYY=            -96.6720 XXZZ=           -278.7078 YYZZ=           -283.4517
 XXYZ=            -83.8809 YYXZ=              3.9636 ZZXY=             45.6618
 N-N= 2.191025746143D+02 E-N=-1.064844329883D+03  KE= 2.680588296237D+02
  Exact polarizability:   0.000   0.000   0.000   0.000   0.000   0.000
 Approx polarizability: 125.883 -11.503  95.253  10.329  33.591 111.322
   1 Symmetry operations used in ECPInt.
 ECPInt:  NShTT=    4095 NPrTT=   12396 LenC2=    4075 LenP2D=   10360.
 LDataN:  DoStor=T MaxTD1= 8 Len=  415
 Calling FoFJK, ICntrl=    100147 FMM=F ISym2X=0 I1Cent= 0 IOpClX= 0 NMat=1 NMatS=1 NMatT=0.
 -------------------------------------------------------------------
 Center     Atomic                   Forces (Hartrees/Bohr)
 Number     Number              X              Y              Z
 -------------------------------------------------------------------
      1        1          -0.000373008    0.000623782    0.000031567
      2        6           0.000308669   -0.000707982    0.000243257
      3        6          -0.000028671   -0.000451601   -0.000802444
      4        6           0.000363293   -0.000417150   -0.000938300
      5        1          -0.000113746    0.000133694   -0.000082714
      6        6          -0.000726946    0.000650529    0.001111276
      7        1           0.000045525   -0.000012603   -0.000206187
      8        1           0.000101891   -0.000053808    0.000188292
      9        1           0.000164854    0.000161475   -0.000231425
     10        6           0.001481058   -0.000880533    0.000022512
     11        1           0.000296746    0.000205042   -0.000031407
     12        8          -0.001519665    0.000749155    0.000695571
 -------------------------------------------------------------------
 Cartesian Forces:  Max     0.001519665 RMS     0.000579737
 -----------------------------------------------------------------------------------------------
                       Internal Coordinate Forces (Hartree/Bohr or radian)
  Cent   Atom   N1       Length/X         N2         Alpha/Y        N3         Beta/Z          J
 -----------------------------------------------------------------------------------------------
      1  H 
      2  C        1  -0.000032(     1)
      3  C        2  -0.000039(     2)      1  -0.002144(    12)
      4  C        2  -0.000994(     3)      1  -0.001565(    13)      3   0.001007(    22)     0
      5  H        3  -0.000094(     4)      2  -0.000220(    14)      1   0.000482(    23)     0
      6  C        3   0.001771(     5)      2   0.004423(    15)      5   0.000248(    24)     0
      7  H        4   0.000054(     6)      2  -0.000415(    16)      1   0.000225(    25)     0
      8  H        4   0.000176(     7)      2  -0.000183(    17)      7   0.000179(    26)     0
      9  H        6   0.000049(     8)      3  -0.000356(    18)      2   0.000465(    27)     0
     10  C        6   0.000053(     9)      3   0.005005(    19)      9  -0.000020(    28)     0
     11  H       10   0.000245(    10)      6  -0.000388(    20)      3   0.001425(    29)     0
     12  O       10   0.001289(    11)      6   0.002786(    21)     11   0.001071(    30)     0
 -----------------------------------------------------------------------------------------------
 Internal  Forces:  Max     0.005005450 RMS     0.001534494

 GradGradGradGradGradGradGradGradGradGradGradGradGradGradGradGradGradGrad
 Berny optimization.
 Search for a saddle point.
 Step number   1 out of a maximum of   40
 All quantities printed in internal units (Hartrees-Bohrs-Radians)
 Swapping is turned off.
 Second derivative matrix not updated -- analytic derivatives used.
 ITU=  0
     Eigenvalues ---   -0.86237   0.01732   0.02759   0.04033   0.04341
     Eigenvalues ---    0.06257   0.08774   0.11069   0.12820   0.15375
     Eigenvalues ---    0.18834   0.20206   0.23705   0.27973   0.29435
     Eigenvalues ---    0.32073   0.34630   0.35083   0.35261   0.35561
     Eigenvalues ---    0.36316   0.39292   0.41785   0.44990   0.47254
     Eigenvalues ---    0.54905   0.57973   0.68991   1.07001   3.03447
 Eigenvectors required to have negative eigenvalues:
                          A10       A6        R4        D8        R12
   1                    0.46965   0.41457  -0.27659   0.27485  -0.25154
                          A12       D4        R10       A3        D7
   1                    0.23987   0.23577   0.22449  -0.19871   0.19367
 RFO step:  Lambda0=4.201611608D-05 Lambda=-9.42551175D-05.
 Linear search not attempted -- option 19 set.
 Variable       Old X    -DE/DX   Delta X   Delta X   Delta X     New X
                                 (Linear)    (Quad)   (Total)
    R2        2.04586  -0.00003   0.00000  -0.00012  -0.00012   2.04574
    R3        2.61754  -0.00004   0.00000  -0.00360  -0.00360   2.61394
    R4        2.63304  -0.00099   0.00000   0.00195   0.00195   2.63499
    R5        2.05102  -0.00009   0.00000  -0.00046  -0.00046   2.05056
    R6        2.65187   0.00177   0.00000   0.00441   0.00441   2.65628
    R7        2.04617   0.00005   0.00000   0.00029   0.00029   2.04645
    R8        2.04362   0.00018   0.00000   0.00036   0.00036   2.04399
    R9        2.04422   0.00005   0.00000   0.00018   0.00018   2.04440
   R10        2.65985   0.00005   0.00000  -0.00533  -0.00533   2.65452
   R11        2.07314   0.00025   0.00000   0.00030   0.00030   2.07343
   R12        2.38434   0.00129   0.00000   0.00513   0.00513   2.38947
    A3        2.10323  -0.00214   0.00000  -0.00127  -0.00127   2.10196
    A4        2.11744  -0.00156   0.00000   0.00132   0.00132   2.11875
    A5        2.09230  -0.00022   0.00000  -0.00098  -0.00098   2.09133
    A6        2.11075   0.00442   0.00000   0.00016   0.00016   2.11091
    A7        2.10376  -0.00042   0.00000  -0.00284  -0.00284   2.10092
    A8        2.06603  -0.00018   0.00000  -0.00094  -0.00094   2.06509
    A9        2.08134  -0.00036   0.00000  -0.00351  -0.00351   2.07782
   A10        2.07758   0.00501   0.00000   0.00136   0.00136   2.07894
   A11        2.01896  -0.00039   0.00000   0.00034   0.00034   2.01930
   A12        2.23696   0.00279   0.00000   0.00089   0.00089   2.23785
    D4        2.98085   0.00101   0.00000   0.01781   0.01781   2.99866
    D5       -0.31245   0.00048   0.00000   0.02298   0.02298  -0.28946
    D6        2.92833   0.00025   0.00000  -0.00721  -0.00721   2.92113
    D7       -0.14095   0.00023   0.00000  -0.01841  -0.01841  -0.15935
    D8        2.64775   0.00018   0.00000  -0.00815  -0.00815   2.63960
    D9       -3.05933   0.00047   0.00000   0.01260   0.01260  -3.04673
   D10        2.67770  -0.00002   0.00000  -0.00414  -0.00414   2.67356
   D11       -2.49179   0.00143   0.00000  -0.00024  -0.00024  -2.49203
   D12        2.99084   0.00107   0.00000  -0.00080  -0.00080   2.99005
         Item               Value     Threshold  Converged?
 Maximum Force            0.005005     0.000450     NO 
 RMS     Force            0.001534     0.000300     NO 
 Maximum Displacement     0.022983     0.001800     NO 
 RMS     Displacement     0.007301     0.001200     NO 
 Predicted change in Energy=-2.619165D-05
 GradGradGradGradGradGradGradGradGradGradGradGradGradGradGradGradGradGrad

 ---------------------------------------------------------------------------------------------------
                            Z-MATRIX (ANGSTROMS AND DEGREES)
   CD    Cent   Atom    N1       Length/X        N2       Alpha/Y        N3        Beta/Z          J
 ---------------------------------------------------------------------------------------------------
      1      1  H 
      2      2  C        1   1.082561(     1)
      3      3  C        2   1.383237(     2)      1  120.433(    12)
      4      4  C        2   1.394377(     3)      1  121.396(    13)      3  171.811(    22)      0
      5      5  H        3   1.085112(     4)      2  119.824(    14)      1  -16.585(    23)      0
      6      6  C        3   1.405641(     5)      2  120.946(    15)      5  167.368(    24)      0
      7      7  H        4   1.082937(     6)      2  120.374(    16)      1   -9.130(    25)      0
      8      8  H        4   1.081633(     7)      2  118.321(    17)      7  151.238(    26)      0
      9      9  H        6   1.081849(     8)      3  119.051(    18)      2 -174.565(    27)      0
     10     10  C        6   1.404712(     9)      3  119.114(    19)      9  153.184(    28)      0
     11     11  H       10   1.097213(    10)      6  115.697(    20)      3 -142.783(    29)      0
     12     12  O       10   1.264453(    11)      6  128.219(    21)     11  171.317(    30)      0
 ---------------------------------------------------------------------------------------------------
                         Z-Matrix orientation:                         
 ---------------------------------------------------------------------
 Center     Atomic      Atomic             Coordinates (Angstroms)
 Number     Number       Type             X           Y           Z
 ---------------------------------------------------------------------
      1          1           0        0.000000    0.000000    0.000000
      2          6           0        0.000000    0.000000    1.082561
      3          6           0        1.192654    0.000000    1.783218
      4          6           0       -1.178089    0.169543    1.808955
      5          1           0        2.114979   -0.268710    1.278659
      6          6           0        1.282926    0.588448    3.056563
      7          1           0       -2.095263    0.451319    1.306814
      8          1           0       -1.307477   -0.402660    2.717675
      9          1           0        2.249066    0.650229    3.539424
     10          6           0        0.332593    1.551902    3.433176
     11          1           0        0.713706    2.386030    4.035556
     12          8           0       -0.866148    1.661380    3.046039
 ---------------------------------------------------------------------
                    Distance matrix (angstroms):
                    1          2          3          4          5
     1  H    0.000000
     2  C    1.082561   0.000000
     3  C    2.145295   1.383237   0.000000
     4  C    2.165400   1.394377   2.376937   0.000000
     5  H    2.486023   2.140980   1.085112   3.364160   0.000000
     6  C    3.366712   2.426697   1.405641   2.790806   2.141956
     7  H    2.510294   2.155019   3.352767   1.082937   4.271460
     8  H    3.042596   2.131955   2.699259   1.081633   3.715093
     9  H    4.243656   3.393711   2.150131   3.869234   2.444072
    10  C    3.782290   2.836267   2.422905   2.613651   3.336686
    11  H    4.742175   3.862990   3.315955   3.667349   4.075744
    12  O    3.576136   2.713972   2.931479   1.962972   3.966863
                    6          7          8          9         10
     6  C    0.000000
     7  H    3.806913   0.000000
     8  H    2.794160   1.827681   0.000000
     9  H    1.081849   4.888487   3.799058   0.000000
    10  C    1.404712   3.409866   2.649921   2.120654   0.000000
    11  H    2.124556   4.368002   3.687652   2.369912   1.097213
    12  O    2.402044   2.449464   2.136084   3.312162   1.264453
                   11         12
    11  H    0.000000
    12  O    2.000050   0.000000
 Symmetry turned off by external request.
 Stoichiometry    C5H6O
 Framework group  C1[X(C5H6O)]
 Deg. of freedom    30
 Full point group                 C1      NOp   1
 Rotational constants (GHZ):           5.5336964           4.6774601           2.6969576
 Standard basis: def2TZVP (5D, 7F)
 The following finite field(s) will be applied:
 An electric field of             -0.0036  0.0005  0.0066
   222 basis functions,   354 primitive gaussians,   252 cartesian basis functions
    22 alpha electrons       22 beta electrons
       nuclear repulsion energy       217.7619809204 Hartrees.
 NAtoms=   12 NActive=   12 NUniq=   12 SFac= 1.00D+00 NAtFMM=   60 NAOKFM=F Big=F
 Integral buffers will be    131072 words long.
 Raffenetti 2 integral format.
 Two-electron integral symmetry is turned off.
 One-electron integrals computed using PRISM.
   1 Symmetry operations used in ECPInt.
 ECPInt:  NShTT=    4095 NPrTT=   12396 LenC2=    4075 LenP2D=   10359.
 LDataN:  DoStor=T MaxTD1= 6 Len=  172
 NBasis=   222 RedAO= T EigKep=  1.15D-04  NBF=   222
 NBsUse=   222 1.00D-06 EigRej= -1.00D+00 NBFU=   222
 The nuclear repulsion energy is now       219.0550304494 hartrees.
 Initial guess from the checkpoint file:  "checkpoint.chk"
 B after Tr=    -0.006340    0.037502   -0.000882
         Rot=    0.999943   -0.008860   -0.000886   -0.005969 Ang=  -1.23 deg.
 ExpMin= 9.52D-02 ExpMax= 2.70D+04 ExpMxC= 9.22D+02 IAcc=2 IRadAn=         4 AccDes= 0.00D+00
 Harris functional with IExCor=  402 and IRadAn=       4 diagonalized for initial guess.
 HarFok:  IExCor=  402 AccDes= 0.00D+00 IRadAn=         4 IDoV= 1 UseB2=F ITyADJ=14
 ICtDFT=  3500011 ScaDFX=  1.000000  1.000000  1.000000  1.000000
 FoFCou: FMM=F IPFlag=           0 FMFlag=      100000 FMFlg1=           0
         NFxFlg=           0 DoJE=T BraDBF=F KetDBF=T FulRan=T
         wScrn=  0.000000 ICntrl=       500 IOpCl=  0 I1Cent=   200000004 NGrid=           0
         NMat0=    1 NMatS0=      1 NMatT0=    0 NMatD0=    1 NMtDS0=    0 NMtDT0=    0
 Symmetry not used in FoFCou.
 Keep R1 ints in memory in canonical form, NReq=319363861.
 Requested convergence on RMS density matrix=1.00D-08 within 128 cycles.
 Requested convergence on MAX density matrix=1.00D-06.
 Requested convergence on             energy=1.00D-06.
 No special actions if energy rises.
 Integral accuracy reduced to 1.0D-05 until final iterations.
 Initial convergence to 1.0D-05 achieved.  Increase integral accuracy.
 SCF Done:  E(RB3LYP) =  -269.396123430     A.U. after   12 cycles
            NFock= 12  Conv=0.35D-08     -V/T= 2.0050
   1 Symmetry operations used in ECPInt.
 ECPInt:  NShTT=    4095 NPrTT=   12396 LenC2=    4075 LenP2D=   10359.
 LDataN:  DoStor=T MaxTD1= 7 Len=  274
 Calling FoFJK, ICntrl=      2127 FMM=F ISym2X=0 I1Cent= 0 IOpClX= 0 NMat=1 NMatS=1 NMatT=0.
 -------------------------------------------------------------------
 Center     Atomic                   Forces (Hartrees/Bohr)
 Number     Number              X              Y              Z
 -------------------------------------------------------------------
      1        1          -0.000608816    0.001200192   -0.000000606
      2        6           0.000605264   -0.001598404   -0.000000811
      3        6           0.000022362    0.000418652   -0.000008580
      4        6          -0.000026272   -0.000014781    0.000009214
      5        1           0.000001215   -0.000004225    0.000000804
      6        6           0.000004304   -0.000013375    0.000007035
      7        1          -0.000000497    0.000004257   -0.000000191
      8        1           0.000000069   -0.000008542   -0.000005049
      9        1           0.000000874    0.000001276   -0.000000001
     10        6           0.000016639    0.000016799    0.000018673
     11        1           0.000000141   -0.000000089    0.000002709
     12        8          -0.000015284   -0.000001759   -0.000023197
 -------------------------------------------------------------------
 Cartesian Forces:  Max     0.001598404 RMS     0.000369356
 -----------------------------------------------------------------------------------------------
                       Internal Coordinate Forces (Hartree/Bohr or radian)
  Cent   Atom   N1       Length/X         N2         Alpha/Y        N3         Beta/Z          J
 -----------------------------------------------------------------------------------------------
      1  H 
      2  C        1   0.000001(     1)
      3  C        2   0.000025(     2)      1  -0.000014(    12)
      4  C        2   0.000022(     3)      1  -0.000021(    13)      3   0.000046(    22)     0
      5  H        3   0.000002(     4)      2   0.000001(    14)      1  -0.000037(    23)     0
      6  C        3   0.000006(     5)      2  -0.000019(    15)      5  -0.000029(    24)     0
      7  H        4   0.000002(     6)      2   0.000000(    16)      1  -0.000023(    25)     0
      8  H        4   0.000000(     7)      2  -0.000009(    17)      7  -0.000016(    26)     0
      9  H        6   0.000001(     8)      3   0.000000(    18)      2  -0.000038(    27)     0
     10  C        6   0.000009(     9)      3  -0.000033(    19)      9  -0.000041(    28)     0
     11  H       10   0.000001(    10)      6  -0.000000(    20)      3  -0.000027(    29)     0
     12  O       10   0.000021(    11)      6  -0.000031(    21)     11  -0.000022(    30)     0
 -----------------------------------------------------------------------------------------------
 Internal  Forces:  Max     0.000046050 RMS     0.000021821

 GradGradGradGradGradGradGradGradGradGradGradGradGradGradGradGradGradGrad
 Berny optimization.
 Search for a saddle point.
 Step number   2 out of a maximum of   40
 All quantities printed in internal units (Hartrees-Bohrs-Radians)
 Swapping is turned off.
 Update second derivatives using D2CorN and points    1    2
 ITU=  0  0
     Eigenvalues ---   -0.86251   0.01705   0.02760   0.04038   0.04344
     Eigenvalues ---    0.06251   0.08773   0.11069   0.12821   0.15375
     Eigenvalues ---    0.18835   0.20209   0.23707   0.27973   0.29435
     Eigenvalues ---    0.32073   0.34630   0.35083   0.35261   0.35561
     Eigenvalues ---    0.36316   0.39292   0.41789   0.44991   0.47258
     Eigenvalues ---    0.54907   0.57976   0.68989   1.07005   3.03447
 Eigenvectors required to have negative eigenvalues:
                          A10       A6        R4        D8        R12
   1                    0.46964   0.41458  -0.27660   0.27490  -0.25157
                          A12       D4        R10       A3        D7
   1                    0.23988   0.23547   0.22449  -0.19868   0.19387
 RFO step:  Lambda0=1.102416103D-09 Lambda=-3.30037786D-08.
 Linear search not attempted -- option 19 set.
 Variable       Old X    -DE/DX   Delta X   Delta X   Delta X     New X
                                 (Linear)    (Quad)   (Total)
    R2        2.04574   0.00000   0.00000  -0.00000  -0.00000   2.04574
    R3        2.61394   0.00002   0.00000   0.00004   0.00004   2.61398
    R4        2.63499   0.00002   0.00000   0.00000   0.00000   2.63499
    R5        2.05056   0.00000   0.00000  -0.00000  -0.00000   2.05056
    R6        2.65628   0.00001   0.00000   0.00001   0.00001   2.65629
    R7        2.04645   0.00000   0.00000   0.00000   0.00000   2.04646
    R8        2.04399   0.00000   0.00000   0.00000   0.00000   2.04399
    R9        2.04440   0.00000   0.00000   0.00000   0.00000   2.04440
   R10        2.65452   0.00001   0.00000   0.00006   0.00006   2.65458
   R11        2.07343   0.00000   0.00000   0.00001   0.00001   2.07344
   R12        2.38947   0.00002   0.00000   0.00002   0.00002   2.38949
    A3        2.10196  -0.00001   0.00000   0.00009   0.00009   2.10205
    A4        2.11875  -0.00002   0.00000  -0.00007  -0.00007   2.11869
    A5        2.09133   0.00000   0.00000   0.00003   0.00003   2.09136
    A6        2.11091  -0.00002   0.00000  -0.00005  -0.00005   2.11086
    A7        2.10092   0.00000   0.00000  -0.00000  -0.00000   2.10092
    A8        2.06509  -0.00001   0.00000   0.00003   0.00003   2.06512
    A9        2.07782   0.00000   0.00000   0.00000   0.00000   2.07782
   A10        2.07894  -0.00003   0.00000  -0.00001  -0.00001   2.07893
   A11        2.01930  -0.00000   0.00000   0.00001   0.00001   2.01931
   A12        2.23785  -0.00003   0.00000  -0.00003  -0.00003   2.23781
    D4        2.99866   0.00005   0.00000   0.00071   0.00071   2.99937
    D5       -0.28946  -0.00004   0.00000   0.00035   0.00035  -0.28912
    D6        2.92113  -0.00003   0.00000   0.00014   0.00014   2.92126
    D7       -0.15935  -0.00002   0.00000  -0.00060  -0.00060  -0.15995
    D8        2.63960  -0.00002   0.00000   0.00017   0.00017   2.63978
    D9       -3.04673  -0.00004   0.00000   0.00001   0.00001  -3.04672
   D10        2.67356  -0.00004   0.00000  -0.00004  -0.00004   2.67352
   D11       -2.49203  -0.00003   0.00000   0.00002   0.00002  -2.49201
   D12        2.99005  -0.00002   0.00000   0.00002   0.00002   2.99006
         Item               Value     Threshold  Converged?
 Maximum Force            0.000046     0.000450     YES
 RMS     Force            0.000022     0.000300     YES
 Maximum Displacement     0.000714     0.001800     YES
 RMS     Displacement     0.000188     0.001200     YES
 Predicted change in Energy=-1.595068D-08
 Optimization completed.
    -- Stationary point found.
                       ----------------------------
                       !   Optimized Parameters   !
                       ! (Angstroms and Degrees)  !
 ----------------------                            ----------------------
 !      Name          Value   Derivative information (Atomic Units)     !
 ------------------------------------------------------------------------
 !       R2          1.0826   -DE/DX =    0.0                           !
 !       R3          1.3832   -DE/DX =    0.0                           !
 !       R4          1.3944   -DE/DX =    0.0                           !
 !       R5          1.0851   -DE/DX =    0.0                           !
 !       R6          1.4056   -DE/DX =    0.0                           !
 !       R7          1.0829   -DE/DX =    0.0                           !
 !       R8          1.0816   -DE/DX =    0.0                           !
 !       R9          1.0818   -DE/DX =    0.0                           !
 !       R10         1.4047   -DE/DX =    0.0                           !
 !       R11         1.0972   -DE/DX =    0.0                           !
 !       R12         1.2645   -DE/DX =    0.0                           !
 !       A3        120.4333   -DE/DX =    0.0                           !
 !       A4        121.3957   -DE/DX =    0.0                           !
 !       A5        119.8242   -DE/DX =    0.0                           !
 !       A6        120.9462   -DE/DX =    0.0                           !
 !       A7        120.3741   -DE/DX =    0.0                           !
 !       A8        118.3209   -DE/DX =    0.0                           !
 !       A9        119.0505   -DE/DX =    0.0                           !
 !       A10       119.1144   -DE/DX =    0.0                           !
 !       A11       115.6975   -DE/DX =    0.0                           !
 !       A12       128.2192   -DE/DX =    0.0                           !
 !       D4        171.8106   -DE/DX =    0.0                           !
 !       D5        -16.585    -DE/DX =    0.0                           !
 !       D6        167.3682   -DE/DX =    0.0                           !
 !       D7         -9.1303   -DE/DX =    0.0                           !
 !       D8        151.2381   -DE/DX =    0.0                           !
 !       D9       -174.565    -DE/DX =    0.0                           !
 !       D10       153.1838   -DE/DX =    0.0                           !
 !       D11      -142.7828   -DE/DX =    0.0                           !
 !       D12       171.317    -DE/DX =    0.0                           !
 ------------------------------------------------------------------------
 GradGradGradGradGradGradGradGradGradGradGradGradGradGradGradGradGradGrad

 ---------------------------------------------------------------------------------------------------
                            Z-MATRIX (ANGSTROMS AND DEGREES)
   CD    Cent   Atom    N1       Length/X        N2       Alpha/Y        N3        Beta/Z          J
 ---------------------------------------------------------------------------------------------------
      1      1  H 
      2      2  C        1   1.082561(     1)
      3      3  C        2   1.383237(     2)      1  120.433(    12)
      4      4  C        2   1.394377(     3)      1  121.396(    13)      3  171.811(    22)      0
      5      5  H        3   1.085112(     4)      2  119.824(    14)      1  -16.585(    23)      0
      6      6  C        3   1.405641(     5)      2  120.946(    15)      5  167.368(    24)      0
      7      7  H        4   1.082937(     6)      2  120.374(    16)      1   -9.130(    25)      0
      8      8  H        4   1.081633(     7)      2  118.321(    17)      7  151.238(    26)      0
      9      9  H        6   1.081849(     8)      3  119.051(    18)      2 -174.565(    27)      0
     10     10  C        6   1.404712(     9)      3  119.114(    19)      9  153.184(    28)      0
     11     11  H       10   1.097213(    10)      6  115.697(    20)      3 -142.783(    29)      0
     12     12  O       10   1.264453(    11)      6  128.219(    21)     11  171.317(    30)      0
 ---------------------------------------------------------------------------------------------------
                         Z-Matrix orientation:                         
 ---------------------------------------------------------------------
 Center     Atomic      Atomic             Coordinates (Angstroms)
 Number     Number       Type             X           Y           Z
 ---------------------------------------------------------------------
      1          1           0        0.000000    0.000000    0.000000
      2          6           0        0.000000    0.000000    1.082561
      3          6           0        1.192654    0.000000    1.783218
      4          6           0       -1.178089    0.169543    1.808955
      5          1           0        2.114979   -0.268710    1.278659
      6          6           0        1.282926    0.588448    3.056563
      7          1           0       -2.095263    0.451319    1.306814
      8          1           0       -1.307477   -0.402660    2.717675
      9          1           0        2.249066    0.650229    3.539424
     10          6           0        0.332593    1.551902    3.433176
     11          1           0        0.713706    2.386030    4.035556
     12          8           0       -0.866148    1.661380    3.046039
 ---------------------------------------------------------------------
                    Distance matrix (angstroms):
                    1          2          3          4          5
     1  H    0.000000
     2  C    1.082561   0.000000
     3  C    2.145295   1.383237   0.000000
     4  C    2.165400   1.394377   2.376937   0.000000
     5  H    2.486023   2.140980   1.085112   3.364160   0.000000
     6  C    3.366712   2.426697   1.405641   2.790806   2.141956
     7  H    2.510294   2.155019   3.352767   1.082937   4.271460
     8  H    3.042596   2.131955   2.699259   1.081633   3.715093
     9  H    4.243656   3.393711   2.150131   3.869234   2.444072
    10  C    3.782290   2.836267   2.422905   2.613651   3.336686
    11  H    4.742175   3.862990   3.315955   3.667349   4.075744
    12  O    3.576136   2.713972   2.931479   1.962972   3.966863
                    6          7          8          9         10
     6  C    0.000000
     7  H    3.806913   0.000000
     8  H    2.794160   1.827681   0.000000
     9  H    1.081849   4.888487   3.799058   0.000000
    10  C    1.404712   3.409866   2.649921   2.120654   0.000000
    11  H    2.124556   4.368002   3.687652   2.369912   1.097213
    12  O    2.402044   2.449464   2.136084   3.312162   1.264453
                   11         12
    11  H    0.000000
    12  O    2.000050   0.000000
 Symmetry turned off by external request.
 Stoichiometry    C5H6O
 Framework group  C1[X(C5H6O)]
 Deg. of freedom    30
 Full point group                 C1      NOp   1
 Rotational constants (GHZ):           5.5336964           4.6774601           2.6969576

 **********************************************************************

            Population analysis using the SCF density.

 **********************************************************************

 Alpha  occ. eigenvalues --  -19.17314 -10.28190 -10.25185 -10.22072 -10.19972
 Alpha  occ. eigenvalues --  -10.19280  -1.07541  -0.85477  -0.78612  -0.69576
 Alpha  occ. eigenvalues --   -0.63608  -0.55478  -0.53618  -0.49974  -0.48786
 Alpha  occ. eigenvalues --   -0.47164  -0.42379  -0.41006  -0.40225  -0.35487
 Alpha  occ. eigenvalues --   -0.31854  -0.24350
 Alpha virt. eigenvalues --   -0.09698  -0.03065   0.02005   0.02469   0.04301
 Alpha virt. eigenvalues --    0.05262   0.06877   0.09137   0.10442   0.12523
 Alpha virt. eigenvalues --    0.15016   0.16837   0.17495   0.18141   0.20118
 Alpha virt. eigenvalues --    0.20541   0.22133   0.25109   0.25122   0.26332
 Alpha virt. eigenvalues --    0.27858   0.30716   0.31366   0.33468   0.35213
 Alpha virt. eigenvalues --    0.36837   0.37898   0.39201   0.39770   0.41052
 Alpha virt. eigenvalues --    0.41682   0.42757   0.43205   0.45482   0.46793
 Alpha virt. eigenvalues --    0.49977   0.51389   0.51681   0.54361   0.55570
 Alpha virt. eigenvalues --    0.59213   0.62898   0.65805   0.66769   0.72098
 Alpha virt. eigenvalues --    0.77147   0.79766   0.84149   0.84677   0.87147
 Alpha virt. eigenvalues --    0.90477   0.91001   0.93531   0.94107   0.94906
 Alpha virt. eigenvalues --    0.98262   1.01105   1.04283   1.07985   1.09426
 Alpha virt. eigenvalues --    1.12216   1.14541   1.16715   1.20845   1.21026
 Alpha virt. eigenvalues --    1.26182   1.28469   1.32188   1.36306   1.36972
 Alpha virt. eigenvalues --    1.40542   1.41343   1.43601   1.45301   1.48688
 Alpha virt. eigenvalues --    1.50410   1.54933   1.57525   1.60719   1.61866
 Alpha virt. eigenvalues --    1.64295   1.66011   1.70721   1.75128   1.76000
 Alpha virt. eigenvalues --    1.78746   1.80283   1.82594   1.86358   1.88652
 Alpha virt. eigenvalues --    1.91412   1.94387   2.02024   2.04260   2.08051
 Alpha virt. eigenvalues --    2.12229   2.12657   2.16479   2.18271   2.23273
 Alpha virt. eigenvalues --    2.25362   2.29461   2.34592   2.38246   2.41628
 Alpha virt. eigenvalues --    2.46864   2.48660   2.49922   2.52122   2.53557
 Alpha virt. eigenvalues --    2.55871   2.59008   2.60281   2.63162   2.66103
 Alpha virt. eigenvalues --    2.67393   2.68148   2.74413   2.75357   2.76771
 Alpha virt. eigenvalues --    2.79409   2.81199   2.82443   2.83814   2.86607
 Alpha virt. eigenvalues --    2.89107   2.92383   2.92906   2.95437   2.98997
 Alpha virt. eigenvalues --    3.00245   3.01972   3.03958   3.09179   3.11105
 Alpha virt. eigenvalues --    3.12164   3.14023   3.16741   3.20670   3.20777
 Alpha virt. eigenvalues --    3.22048   3.25001   3.26392   3.32454   3.32874
 Alpha virt. eigenvalues --    3.36668   3.39205   3.40689   3.43313   3.45186
 Alpha virt. eigenvalues --    3.46952   3.49789   3.55790   3.60971   3.61280
 Alpha virt. eigenvalues --    3.66260   3.82603   3.87875   3.89630   3.91057
 Alpha virt. eigenvalues --    3.95143   3.99268   4.00748   4.05197   4.08738
 Alpha virt. eigenvalues --    4.13520   4.15356   4.23138   4.28207   4.30177
 Alpha virt. eigenvalues --    4.36579   4.41304   4.45463   4.51681   4.62047
 Alpha virt. eigenvalues --    4.64231   4.69108   4.78268   4.83311   4.84001
 Alpha virt. eigenvalues --    5.03477   5.12647   5.21939   5.25743   5.48268
 Alpha virt. eigenvalues --    5.57921   5.95142   6.17326   6.29723   6.47587
 Alpha virt. eigenvalues --    6.69593   6.75229   6.94207   7.05030  22.03057
 Alpha virt. eigenvalues --   22.31612  22.46974  22.67551  22.85004  43.77539
          Condensed to atoms (all electrons):
               1          2          3          4          5          6
     1  H    0.510077   0.415371  -0.039507  -0.036323  -0.004161   0.006865
     2  C    0.415371   4.956516   0.507271   0.514819  -0.029158  -0.030154
     3  C   -0.039507   0.507271   4.876917  -0.086312   0.412877   0.449153
     4  C   -0.036323   0.514819  -0.086312   4.824280   0.008880  -0.014640
     5  H   -0.004161  -0.029158   0.412877   0.008880   0.509792  -0.043997
     6  C    0.006865  -0.030154   0.449153  -0.014640  -0.043997   5.298784
     7  H   -0.005833  -0.032782   0.009458   0.394891  -0.000229  -0.000813
     8  H    0.006801  -0.025734  -0.039688   0.411480   0.000102   0.040018
     9  H   -0.000179   0.007316  -0.041649   0.000088  -0.006335   0.397058
    10  C   -0.002163  -0.046113  -0.030848  -0.044374   0.001911   0.421246
    11  H   -0.000010  -0.007382   0.006630   0.005168  -0.000654  -0.117524
    12  O    0.000431  -0.034721   0.000698   0.090373  -0.000813  -0.138740
               7          8          9         10         11         12
     1  H   -0.005833   0.006801  -0.000179  -0.002163  -0.000010   0.000431
     2  C   -0.032782  -0.025734   0.007316  -0.046113  -0.007382  -0.034721
     3  C    0.009458  -0.039688  -0.041649  -0.030848   0.006630   0.000698
     4  C    0.394891   0.411480   0.000088  -0.044374   0.005168   0.090373
     5  H   -0.000229   0.000102  -0.006335   0.001911  -0.000654  -0.000813
     6  C   -0.000813   0.040018   0.397058   0.421246  -0.117524  -0.138740
     7  H    0.539523  -0.040079   0.000021   0.001174   0.000039   0.000474
     8  H   -0.040079   0.621276  -0.000068  -0.011881  -0.002144  -0.061408
     9  H    0.000021  -0.000068   0.568729  -0.034159  -0.000820   0.006038
    10  C    0.001174  -0.011881  -0.034159   4.675347   0.420718   0.501831
    11  H    0.000039  -0.002144  -0.000820   0.420718   0.639412  -0.036987
    12  O    0.000474  -0.061408   0.006038   0.501831  -0.036987   7.997708
 Mulliken charges:
               1
     1  H    0.148631
     2  C   -0.195248
     3  C   -0.025001
     4  C   -0.068331
     5  H    0.151785
     6  C   -0.267256
     7  H    0.134157
     8  H    0.101325
     9  H    0.103960
    10  C    0.147310
    11  H    0.093552
    12  O   -0.324884
 Sum of Mulliken charges =  -0.00000
 Mulliken charges with hydrogens summed into heavy atoms:
               1
     2  C   -0.046617
     3  C    0.126783
     4  C    0.167151
     6  C   -0.163296
    10  C    0.240862
    12  O   -0.324884
 Electronic spatial extent (au):  <R**2>=           1446.0674
 Charge=             -0.0000 electrons
 Dipole moment (field-independent basis, Debye):
    X=              1.3723    Y=             -0.8579    Z=             -1.6587  Tot=              2.3174
 Quadrupole moment (field-independent basis, Debye-Ang):
   XX=            -33.0370   YY=            -39.4816   ZZ=            -41.6636
   XY=              2.8339   XZ=              4.7875   YZ=             -1.8879
 Traceless Quadrupole moment (field-independent basis, Debye-Ang):
   XX=              5.0237   YY=             -1.4209   ZZ=             -3.6028
   XY=              2.8339   XZ=              4.7875   YZ=             -1.8879
 Octapole moment (field-independent basis, Debye-Ang**2):
  XXX=            -10.9345  YYY=            -72.6765  ZZZ=           -273.8835  XYY=              0.9927
  XXY=            -26.0261  XXZ=            -82.2848  XZZ=             11.7220  YZZ=            -25.2897
  YYZ=            -90.4176  XYZ=             12.4142
 Hexadecapole moment (field-independent basis, Debye-Ang**3):
 XXXX=           -251.9253 YYYY=           -253.3752 ZZZZ=          -1496.1468 XXXY=              0.1555
 XXXZ=            -37.9967 YYYX=             15.3076 YYYZ=           -227.6670 ZZZX=              4.4396
 ZZZY=           -215.3470 XXYY=            -95.1493 XXZZ=           -282.9342 YYZZ=           -284.1166
 XXYZ=            -82.7793 YYXZ=              3.8703 ZZXY=             46.2556
 N-N= 2.190550304494D+02 E-N=-1.064739529388D+03  KE= 2.680527715590D+02
 1\1\GINC-BHC0099\FTS\RB3LYP\def2TZVP\C5H6O1\DHANAWAY\18-Mar-2022\1\\# 
 Opt=(TS, CalcFC, noeigentest, Z-matrix, MaxStep=10) geom=allcheckpoint
  guess=read Field=read NoSymm B3LYP/Def2TZVP\\ts_zmat_initalOpt\\0,1\H
 \C,1,R2\C,2,R3,1,A3\C,2,R4,1,A4,3,D4,0\H,3,R5,2,A5,1,D5,0\C,3,R6,2,A6,
 5,D6,0\H,4,R7,2,A7,1,D7,0\H,4,R8,2,A8,7,D8,0\H,6,R9,3,A9,2,D9,0\C,6,R1
 0,3,A10,9,D10,0\H,10,R11,6,A11,3,D11,0\O,10,R12,6,A12,11,D12,0\\R2=1.0
 8256057\R3=1.38323712\R4=1.39437691\R5=1.0851119\R6=1.40564116\R7=1.08
 293695\R8=1.08163282\R9=1.08184937\R10=1.40471156\R11=1.09721333\R12=1
 .26445278\A3=120.4332842\A4=121.39570792\A5=119.82418666\A6=120.946226
 6\A7=120.37407051\A8=118.32093554\A9=119.05053988\A10=119.11440404\A11
 =115.69746306\A12=128.21919511\D4=171.81057581\D5=-16.58503135\D6=167.
 36816188\D7=-9.13033783\D8=151.23814964\D9=-174.56495063\D10=153.18376
 952\D11=-142.78279574\D12=171.31701448\\Version=ES64L-G16RevA.03\HF=-2
 69.3961234\RMSD=3.505e-09\RMSF=3.694e-04\Dipole=0.5399037,-0.3375266,-
 0.6525853\Quadrupole=3.7350067,-1.0563903,-2.6786164,2.106915,3.559397
 4,-1.4036307\PG=C01 [X(C5H6O1)]\\@


 IT IS BY LOGIC THAT WE PROVE, BUT BY INTUITION THAT WE DISCOVER.
     -- J.H.POINCARE (1854-1912)
 Job cpu time:       0 days  0 hours 36 minutes 13.5 seconds.
 Elapsed time:       0 days  0 hours  3 minutes 13.6 seconds.
 File lengths (MBytes):  RWF=     53 Int=      0 D2E=      0 Chk=     32 Scr=      1
 Normal termination of Gaussian 16 at Fri Mar 18 11:12:51 2022.
