 Entering Gaussian System, Link 0=g16
 Input=int_zmat_field_N50.gjf
 Output=int_zmat_field_N50.out
 Initial command:
 /software/gaussian/g16-a03/l1.exe "/local_scratch/11171319/Gau-2496.inp" -scrdir="/local_scratch/11171319/"
 Entering Link 1 = /software/gaussian/g16-a03/l1.exe PID=      2497.
  
 Copyright (c) 1988,1990,1992,1993,1995,1998,2003,2009,2016,
            Gaussian, Inc.  All Rights Reserved.
  
 This is part of the Gaussian(R) 16 program.  It is based on
 the Gaussian(R) 09 system (copyright 2009, Gaussian, Inc.),
 the Gaussian(R) 03 system (copyright 2003, Gaussian, Inc.),
 the Gaussian(R) 98 system (copyright 1998, Gaussian, Inc.),
 the Gaussian(R) 94 system (copyright 1995, Gaussian, Inc.),
 the Gaussian 92(TM) system (copyright 1992, Gaussian, Inc.),
 the Gaussian 90(TM) system (copyright 1990, Gaussian, Inc.),
 the Gaussian 88(TM) system (copyright 1988, Gaussian, Inc.),
 the Gaussian 86(TM) system (copyright 1986, Carnegie Mellon
 University), and the Gaussian 82(TM) system (copyright 1983,
 Carnegie Mellon University). Gaussian is a federally registered
 trademark of Gaussian, Inc.
  
 This software contains proprietary and confidential information,
 including trade secrets, belonging to Gaussian, Inc.
  
 This software is provided under written license and may be
 used, copied, transmitted, or stored only in accord with that
 written license.
  
 The following legend is applicable only to US Government
 contracts under FAR:
  
                    RESTRICTED RIGHTS LEGEND
  
 Use, reproduction and disclosure by the US Government is
 subject to restrictions as set forth in subparagraphs (a)
 and (c) of the Commercial Computer Software - Restricted
 Rights clause in FAR 52.227-19.
  
 Gaussian, Inc.
 340 Quinnipiac St., Bldg. 40, Wallingford CT 06492
  
  
 ---------------------------------------------------------------
 Warning -- This program may not be used in any manner that
 competes with the business of Gaussian, Inc. or will provide
 assistance to any competitor of Gaussian, Inc.  The licensee
 of this program is prohibited from giving any competitor of
 Gaussian, Inc. access to this program.  By using this program,
 the user acknowledges that Gaussian, Inc. is engaged in the
 business of creating and licensing software in the field of
 computational chemistry and represents and warrants to the
 licensee that it is not a competitor of Gaussian, Inc. and that
 it will not use this program in any manner prohibited above.
 ---------------------------------------------------------------
  

 Cite this work as:
 Gaussian 16, Revision A.03,
 M. J. Frisch, G. W. Trucks, H. B. Schlegel, G. E. Scuseria, 
 M. A. Robb, J. R. Cheeseman, G. Scalmani, V. Barone, 
 G. A. Petersson, H. Nakatsuji, X. Li, M. Caricato, A. V. Marenich, 
 J. Bloino, B. G. Janesko, R. Gomperts, B. Mennucci, H. P. Hratchian, 
 J. V. Ortiz, A. F. Izmaylov, J. L. Sonnenberg, D. Williams-Young, 
 F. Ding, F. Lipparini, F. Egidi, J. Goings, B. Peng, A. Petrone, 
 T. Henderson, D. Ranasinghe, V. G. Zakrzewski, J. Gao, N. Rega, 
 G. Zheng, W. Liang, M. Hada, M. Ehara, K. Toyota, R. Fukuda, 
 J. Hasegawa, M. Ishida, T. Nakajima, Y. Honda, O. Kitao, H. Nakai, 
 T. Vreven, K. Throssell, J. A. Montgomery, Jr., J. E. Peralta, 
 F. Ogliaro, M. J. Bearpark, J. J. Heyd, E. N. Brothers, K. N. Kudin, 
 V. N. Staroverov, T. A. Keith, R. Kobayashi, J. Normand, 
 K. Raghavachari, A. P. Rendell, J. C. Burant, S. S. Iyengar, 
 J. Tomasi, M. Cossi, J. M. Millam, M. Klene, C. Adamo, R. Cammi, 
 J. W. Ochterski, R. L. Martin, K. Morokuma, O. Farkas, 
 J. B. Foresman, and D. J. Fox, Gaussian, Inc., Wallingford CT, 2016.
 
 ******************************************
 Gaussian 16:  ES64L-G16RevA.03 25-Dec-2016
                10-Jun-2022 
 ******************************************
 %nprocshared=12
 Will use up to   12 processors via shared memory.
 %chk=checkpoint.chk
 %mem=12GB
 ----------------------------------------------------------------------
 # Opt=(Z-matrix, MaxStep=10) B3LYP/Def2TZVP geom=allcheckpoint guess=r
 ead Field=read NoSymm freq=noraman pop=none
 ----------------------------------------------------------------------
 1/8=10,10=7,18=40,26=3,29=7,38=1/1,3;
 2/12=2,15=1,29=3,40=1/2;
 3/5=44,7=101,11=2,14=-6,25=1,30=1,71=1,74=-5,116=-2/1,2,3;
 4/5=1/1;
 5/5=2,38=6/2;
 7/29=1,30=1/1,2,3,16;
 1/8=10,10=7,18=40,26=3/3(2);
 2/15=1,29=3/2;
 99//99;
 2/15=1,29=3/2;
 3/5=44,7=101,11=2,14=-2,25=1,30=1,71=1,74=-5/1,2,3;
 4/5=5,16=3,69=1/1;
 5/5=2,38=5/2;
 7/30=1/1,2,3,16;
 1/8=10,18=40,26=3/3(-5);
 2/15=1,29=3/2;
 99/9=1/99;
 Structure from the checkpoint file:  "checkpoint.chk"
 ------------------
 int_zmat_initalOpt
 ------------------
 Charge =  0 Multiplicity = 1
 Z-Matrix found in chk file.
 C
 C,1,R2
 C,1,R3,2,A3
 H,1,R4,2,A4,3,D4,0
 H,1,R5,2,A5,3,D5,0
 H,3,R6,1,A6,2,D6,0
 H,3,R7,1,A7,6,D7,0
 C,2,R8,1,A8,3,D8,0
 H,2,R9,1,A9,8,D9,0
 C,8,R10,2,A10,1,D10,0
 H,8,R11,2,A11,10,D11,0
 H,10,R12,8,A12,2,D12,0
 H,10,R13,8,A13,12,D13,0
      Variables:
 R2=1.51618379
 R3=1.50338493
 R4=1.08198238
 R5=1.08171866
 R6=1.08148545
 R7=1.08164699
 R8=1.48167372
 R9=1.08494843
 R10=1.32901238
 R11=1.0876649
 R12=1.08343831
 R13=1.08261884
 A3=59.62242221
 A4=116.98396572
 A5=118.12392542
 A6=117.61401388
 A7=118.26770817
 A8=120.25361625
 A9=114.14883425
 A10=126.87266421
 A11=114.66936146
 A12=122.09108967
 A13=121.13058509
 D4=-107.69036907
 D5=108.5966914
 D6=-108.67176984
 D7=-143.68445019
 D8=112.81119513
 D9=140.35980392
 D10=-86.00863107
 D11=179.59567161
 D12=-1.75985958
 D13=-179.4172928
 Recover connectivity data from disk.

 GradGradGradGradGradGradGradGradGradGradGradGradGradGradGradGradGradGrad
 Berny optimization.
 Initialization pass.
                       ----------------------------
                       !    Initial Parameters    !
                       ! (Angstroms and Degrees)  !
 ----------------------                            ----------------------
 !      Name          Value   Derivative information (Atomic Units)     !
 ------------------------------------------------------------------------
 !       R2          1.5162   estimate D2E/DX2                          !
 !       R3          1.5034   estimate D2E/DX2                          !
 !       R4          1.082    estimate D2E/DX2                          !
 !       R5          1.0817   estimate D2E/DX2                          !
 !       R6          1.0815   estimate D2E/DX2                          !
 !       R7          1.0816   estimate D2E/DX2                          !
 !       R8          1.4817   estimate D2E/DX2                          !
 !       R9          1.0849   estimate D2E/DX2                          !
 !       R10         1.329    estimate D2E/DX2                          !
 !       R11         1.0877   estimate D2E/DX2                          !
 !       R12         1.0834   estimate D2E/DX2                          !
 !       R13         1.0826   estimate D2E/DX2                          !
 !       A3         59.6224   estimate D2E/DX2                          !
 !       A4        116.984    estimate D2E/DX2                          !
 !       A5        118.1239   estimate D2E/DX2                          !
 !       A6        117.614    estimate D2E/DX2                          !
 !       A7        118.2677   estimate D2E/DX2                          !
 !       A8        120.2536   estimate D2E/DX2                          !
 !       A9        114.1488   estimate D2E/DX2                          !
 !       A10       126.8727   estimate D2E/DX2                          !
 !       A11       114.6694   estimate D2E/DX2                          !
 !       A12       122.0911   estimate D2E/DX2                          !
 !       A13       121.1306   estimate D2E/DX2                          !
 !       D4       -107.6904   estimate D2E/DX2                          !
 !       D5        108.5967   estimate D2E/DX2                          !
 !       D6       -108.6718   estimate D2E/DX2                          !
 !       D7       -143.6845   estimate D2E/DX2                          !
 !       D8        112.8112   estimate D2E/DX2                          !
 !       D9        140.3598   estimate D2E/DX2                          !
 !       D10       -86.0086   estimate D2E/DX2                          !
 !       D11       179.5957   estimate D2E/DX2                          !
 !       D12        -1.7599   estimate D2E/DX2                          !
 !       D13      -179.4173   estimate D2E/DX2                          !
 ------------------------------------------------------------------------
 Trust Radius=1.00D-01 FncErr=1.00D-07 GrdErr=1.00D-06 EigMax=2.50D+02 EigMin=1.00D-04
 Number of steps in this run=     43 maximum allowed number of steps=    100.
 GradGradGradGradGradGradGradGradGradGradGradGradGradGradGradGradGradGrad

 ---------------------------------------------------------------------------------------------------
                            Z-MATRIX (ANGSTROMS AND DEGREES)
   CD    Cent   Atom    N1       Length/X        N2       Alpha/Y        N3        Beta/Z          J
 ---------------------------------------------------------------------------------------------------
      1      1  C 
      2      2  C        1   1.516184(     1)
      3      3  C        1   1.503385(     2)      2   59.622(    13)
      4      4  H        1   1.081982(     3)      2  116.984(    14)      3 -107.690(    24)      0
      5      5  H        1   1.081719(     4)      2  118.124(    15)      3  108.597(    25)      0
      6      6  H        3   1.081485(     5)      1  117.614(    16)      2 -108.672(    26)      0
      7      7  H        3   1.081647(     6)      1  118.268(    17)      6 -143.684(    27)      0
      8      8  C        2   1.481674(     7)      1  120.254(    18)      3  112.811(    28)      0
      9      9  H        2   1.084948(     8)      1  114.149(    19)      8  140.360(    29)      0
     10     10  C        8   1.329012(     9)      2  126.873(    20)      1  -86.009(    30)      0
     11     11  H        8   1.087665(    10)      2  114.669(    21)     10  179.596(    31)      0
     12     12  H       10   1.083438(    11)      8  122.091(    22)      2   -1.760(    32)      0
     13     13  H       10   1.082619(    12)      8  121.131(    23)     12 -179.417(    33)      0
 ---------------------------------------------------------------------------------------------------
                         Z-Matrix orientation:                         
 ---------------------------------------------------------------------
 Center     Atomic      Atomic             Coordinates (Angstroms)
 Number     Number       Type             X           Y           Z
 ---------------------------------------------------------------------
      1          6           0        0.000000    0.000000    0.000000
      2          6           0        0.000000    0.000000    1.516184
      3          6           0        1.296988    0.000000    0.760256
      4          1           0       -0.292991    0.918597   -0.490940
      5          1           0       -0.304235   -0.904189   -0.509901
      6          1           0        1.884594    0.907857    0.749078
      7          1           0        1.884938   -0.907841    0.770197
      8          6           0       -0.496202    1.179773    2.262693
      9          1           0       -0.286621   -0.947601    1.960045
     10          6           0        0.199920    2.260300    2.600551
     11          1           0       -1.545460    1.130079    2.544833
     12          1           0        1.253244    2.362290    2.368287
     13          1           0       -0.263724    3.080841    3.133290
 ---------------------------------------------------------------------
                    Distance matrix (angstroms):
                    1          2          3          4          5
     1  C    0.000000
     2  C    1.516184   0.000000
     3  C    1.503385   1.501201   0.000000
     4  H    1.081982   2.226704   2.222014   0.000000
     5  H    1.081719   2.239450   2.234898   1.822919   0.000000
     6  H    2.221940   2.228083   1.081485   2.505921   3.107975
     7  H    2.229433   2.221185   1.081647   3.109617   2.535970
     8  C    2.599589   1.481674   2.620059   2.773446   3.473762
     9  H    2.195877   1.084948   2.201195   3.080595   2.470390
    10  C    3.451346   2.514911   3.114354   3.405943   4.465767
    11  H    3.184604   2.173395   3.541370   3.290793   3.874311
    12  H    3.572089   2.806620   2.857988   3.556722   4.623807
    13  H    4.402117   3.489436   4.190309   4.220332   5.399532
                    6          7          8          9         10
     6  H    0.000000
     7  H    1.815821   0.000000
     8  C    2.834283   3.500786   0.000000
     9  H    3.102152   2.476487   2.158991   0.000000
    10  C    2.845204   4.028225   1.329012   3.307205   0.000000
    11  H    3.878066   4.366931   1.087665   2.498681   2.080110
    12  H    2.266235   3.694142   2.114251   3.673313   1.083438
    13  H    3.875771   5.109847   2.103816   4.195876   1.082619
                   11         12         13
    11  H    0.000000
    12  H    3.063047   0.000000
    13  H    2.407197   1.844651   0.000000
 Symmetry turned off by external request.
 Stoichiometry    C5H8
 Framework group  C1[X(C5H8)]
 Deg. of freedom    33
 Full point group                 C1      NOp   1
 Rotational constants (GHZ):          11.6608627           3.6628540           3.3135093
 Standard basis: def2TZVP (5D, 7F)
 The following finite field(s) will be applied:
 An electric field of              0.0014  0.0048 -0.0003
   203 basis functions,   319 primitive gaussians,   228 cartesian basis functions
    19 alpha electrons       19 beta electrons
       nuclear repulsion energy       165.0758013339 Hartrees.
 NAtoms=   13 NActive=   13 NUniq=   13 SFac= 1.00D+00 NAtFMM=   60 NAOKFM=F Big=F
 Integral buffers will be    131072 words long.
 Raffenetti 2 integral format.
 Two-electron integral symmetry is turned off.
 One-electron integrals computed using PRISM.
   1 Symmetry operations used in ECPInt.
 ECPInt:  NShTT=    3828 NPrTT=   11160 LenC2=    3810 LenP2D=    9472.
 LDataN:  DoStor=T MaxTD1= 6 Len=  172
 NBasis=   203 RedAO= T EigKep=  1.50D-04  NBF=   203
 NBsUse=   203 1.00D-06 EigRej= -1.00D+00 NBFU=   203
 The nuclear repulsion energy is now       165.3079322596 hartrees.
 Initial guess from the checkpoint file:  "checkpoint.chk"
 B after Tr=     0.000000    0.000000    0.000000
         Rot=    1.000000   -0.000000   -0.000000    0.000000 Ang=   0.00 deg.
 Requested convergence on RMS density matrix=1.00D-08 within 128 cycles.
 Requested convergence on MAX density matrix=1.00D-06.
 Requested convergence on             energy=1.00D-06.
 No special actions if energy rises.
 SCF Done:  E(RB3LYP) =  -195.368835136     A.U. after    9 cycles
            NFock=  9  Conv=0.72D-08     -V/T= 2.0056
   1 Symmetry operations used in ECPInt.
 ECPInt:  NShTT=    3828 NPrTT=   11160 LenC2=    3810 LenP2D=    9472.
 LDataN:  DoStor=T MaxTD1= 7 Len=  274
 Calling FoFJK, ICntrl=      2127 FMM=F ISym2X=0 I1Cent= 0 IOpClX= 0 NMat=1 NMatS=1 NMatT=0.
 -------------------------------------------------------------------
 Center     Atomic                   Forces (Hartrees/Bohr)
 Number     Number              X              Y              Z
 -------------------------------------------------------------------
      1        6           0.000044598   -0.000257827   -0.000050917
      2        6           0.000017429    0.000056272    0.000356230
      3        6           0.000014511   -0.000162699   -0.000031128
      4        1          -0.000076183    0.000109215   -0.000013116
      5        1          -0.000062961    0.000101774    0.000193477
      6        1           0.000112238    0.000200529    0.000035695
      7        1          -0.000108452    0.000005061    0.000041691
      8        6          -0.000141932   -0.000607165   -0.000651325
      9        1          -0.000085808    0.000184868   -0.000091646
     10        6           0.000176549    0.000569835   -0.000146641
     11        1           0.000105533   -0.000129659    0.000125468
     12        1           0.000169459   -0.000146898   -0.000000208
     13        1          -0.000164979    0.000076696    0.000232419
 -------------------------------------------------------------------
 Cartesian Forces:  Max     0.000651325 RMS     0.000214105
 -----------------------------------------------------------------------------------------------
                       Internal Coordinate Forces (Hartree/Bohr or radian)
  Cent   Atom   N1       Length/X         N2         Alpha/Y        N3         Beta/Z          J
 -----------------------------------------------------------------------------------------------
      1  C 
      2  C        1  -0.000176(     1)
      3  C        1   0.000039(     2)      2  -0.000177(    13)
      4  H        1   0.000119(     3)      2  -0.000094(    14)      3  -0.000072(    24)     0
      5  H        1  -0.000159(     4)      2  -0.000275(    15)      3   0.000166(    25)     0
      6  H        3   0.000229(     5)      1   0.000020(    16)      2  -0.000081(    26)     0
      7  H        3  -0.000063(     6)      1  -0.000099(    17)      6  -0.000153(    27)     0
      8  C        2  -0.000459(     7)      1  -0.000451(    18)      3   0.000064(    28)     0
      9  H        2  -0.000176(     8)      1  -0.000044(    19)      8  -0.000254(    29)     0
     10  C        8   0.000523(     9)      2   0.000164(    20)      1   0.000383(    30)     0
     11  H        8  -0.000063(    10)      2  -0.000111(    21)     10   0.000358(    31)     0
     12  H       10   0.000151(    11)      8  -0.000268(    22)      2   0.000050(    32)     0
     13  H       10   0.000243(    12)      8  -0.000217(    23)     12   0.000227(    33)     0
 -----------------------------------------------------------------------------------------------
 Internal  Forces:  Max     0.000522790 RMS     0.000225546

 GradGradGradGradGradGradGradGradGradGradGradGradGradGradGradGradGradGrad
 Berny optimization.
 Search for a local minimum.
 Step number   1 out of a maximum of   43
 All quantities printed in internal units (Hartrees-Bohrs-Radians)
 Second derivative matrix not updated -- first step.
 ITU=  0
     Eigenvalues ---    0.02661   0.03702   0.06769   0.07199   0.09287
     Eigenvalues ---    0.10961   0.14479   0.16402   0.17206   0.18680
     Eigenvalues ---    0.20713   0.22389   0.23353   0.32581   0.34379
     Eigenvalues ---    0.35084   0.35403   0.35582   0.35680   0.35756
     Eigenvalues ---    0.35787   0.35790   0.35814   0.35886   0.42379
     Eigenvalues ---    0.44329   0.46733   0.49790   0.51300   0.52876
     Eigenvalues ---    0.53014   0.59740   2.59805
 RFO step:  Lambda=-8.64968946D-06 EMin= 2.66095724D-02
 Linear search not attempted -- first point.
 Variable       Old X    -DE/DX   Delta X   Delta X   Delta X     New X
                                 (Linear)    (Quad)   (Total)
    R2        2.86517  -0.00018   0.00000  -0.00047  -0.00047   2.86471
    R3        2.84099   0.00004   0.00000   0.00007   0.00007   2.84106
    R4        2.04465   0.00012   0.00000   0.00033   0.00033   2.04498
    R5        2.04415  -0.00016   0.00000  -0.00044  -0.00044   2.04371
    R6        2.04371   0.00023   0.00000   0.00064   0.00064   2.04435
    R7        2.04402  -0.00006   0.00000  -0.00017  -0.00017   2.04384
    R8        2.79996  -0.00046   0.00000  -0.00134  -0.00134   2.79862
    R9        2.05026  -0.00018   0.00000  -0.00050  -0.00050   2.04976
   R10        2.51147   0.00052   0.00000   0.00087   0.00087   2.51234
   R11        2.05539  -0.00006   0.00000  -0.00018  -0.00018   2.05521
   R12        2.04740   0.00015   0.00000   0.00042   0.00042   2.04782
   R13        2.04585   0.00024   0.00000   0.00068   0.00068   2.04654
    A3        1.04061  -0.00018   0.00000   0.00006   0.00006   1.04067
    A4        2.04176  -0.00009   0.00000  -0.00018  -0.00018   2.04158
    A5        2.06165  -0.00028   0.00000  -0.00125  -0.00125   2.06040
    A6        2.05275   0.00002   0.00000   0.00020   0.00020   2.05295
    A7        2.06416  -0.00010   0.00000  -0.00000  -0.00000   2.06416
    A8        2.09882  -0.00045   0.00000  -0.00177  -0.00177   2.09705
    A9        1.99227  -0.00004   0.00000   0.00053   0.00053   1.99281
   A10        2.21435   0.00016   0.00000   0.00095   0.00095   2.21530
   A11        2.00136  -0.00011   0.00000  -0.00083  -0.00083   2.00052
   A12        2.13089  -0.00027   0.00000  -0.00049  -0.00049   2.13040
   A13        2.11413  -0.00022   0.00000  -0.00058  -0.00058   2.11355
    D4       -1.87955  -0.00007   0.00000  -0.00046  -0.00046  -1.88001
    D5        1.89537   0.00017   0.00000   0.00137   0.00137   1.89674
    D6       -1.89668  -0.00008   0.00000   0.00014   0.00014  -1.89654
    D7       -2.50777  -0.00015   0.00000  -0.00109  -0.00109  -2.50886
    D8        1.96893   0.00006   0.00000   0.00171   0.00171   1.97063
    D9        2.44974  -0.00025   0.00000  -0.00187  -0.00187   2.44788
   D10       -1.50113   0.00038   0.00000   0.00784   0.00784  -1.49329
   D11        3.13454   0.00036   0.00000   0.00161   0.00161   3.13614
   D12       -0.03072   0.00005   0.00000   0.00063   0.00063  -0.03008
   D13       -3.13142   0.00023   0.00000   0.00291   0.00291  -3.12852
         Item               Value     Threshold  Converged?
 Maximum Force            0.000523     0.000450     NO 
 RMS     Force            0.000226     0.000300     YES
 Maximum Displacement     0.007841     0.001800     NO 
 RMS     Displacement     0.001690     0.001200     NO 
 Predicted change in Energy=-4.324845D-06
 GradGradGradGradGradGradGradGradGradGradGradGradGradGradGradGradGradGrad

 ---------------------------------------------------------------------------------------------------
                            Z-MATRIX (ANGSTROMS AND DEGREES)
   CD    Cent   Atom    N1       Length/X        N2       Alpha/Y        N3        Beta/Z          J
 ---------------------------------------------------------------------------------------------------
      1      1  C 
      2      2  C        1   1.515937(     1)
      3      3  C        1   1.503424(     2)      2   59.626(    13)
      4      4  H        1   1.082159(     3)      2  116.974(    14)      3 -107.716(    24)      0
      5      5  H        1   1.081485(     4)      2  118.052(    15)      3  108.675(    25)      0
      6      6  H        3   1.081824(     5)      1  117.626(    16)      2 -108.664(    26)      0
      7      7  H        3   1.081554(     6)      1  118.267(    17)      6 -143.747(    27)      0
      8      8  C        2   1.480966(     7)      1  120.152(    18)      3  112.909(    28)      0
      9      9  H        2   1.084685(     8)      1  114.179(    19)      8  140.253(    29)      0
     10     10  C        8   1.329472(     9)      2  126.927(    20)      1  -85.559(    30)      0
     11     11  H        8   1.087572(    10)      2  114.622(    21)     10  179.688(    31)      0
     12     12  H       10   1.083660(    11)      8  122.063(    22)      2   -1.724(    32)      0
     13     13  H       10   1.082981(    12)      8  121.098(    23)     12 -179.251(    33)      0
 ---------------------------------------------------------------------------------------------------
                         Z-Matrix orientation:                         
 ---------------------------------------------------------------------
 Center     Atomic      Atomic             Coordinates (Angstroms)
 Number     Number       Type             X           Y           Z
 ---------------------------------------------------------------------
      1          6           0        0.000000    0.000000    0.000000
      2          6           0        0.000000    0.000000    1.515937
      3          6           0        1.297066    0.000000    0.760201
      4          1           0       -0.293485    0.918697   -0.490847
      5          1           0       -0.305611   -0.904178   -0.508599
      6          1           0        1.884941    0.908089    0.749221
      7          1           0        1.884528   -0.908039    0.770848
      8          6           0       -0.498491    1.179575    2.259826
      9          1           0       -0.286632   -0.947099    1.960219
     10          6           0        0.192574    2.266307    2.589884
     11          1           0       -1.545432    1.123671    2.548967
     12          1           0        1.244080    2.373956    2.350999
     13          1           0       -0.273514    3.084545    3.124763
 ---------------------------------------------------------------------
                    Distance matrix (angstroms):
                    1          2          3          4          5
     1  C    0.000000
     2  C    1.515937   0.000000
     3  C    1.503424   1.501172   0.000000
     4  H    1.082159   2.226504   2.222381   0.000000
     5  H    1.081485   2.238232   2.235166   1.823002   0.000000
     6  H    2.222377   2.228336   1.081824   2.506675   3.108849
     7  H    2.229392   2.220617   1.081554   3.110077   2.536476
     8  C    2.597442   1.480966   2.619981   2.770611   3.470361
     9  H    2.195817   1.084685   2.201168   3.080416   2.469264
    10  C    3.446844   2.515272   3.115091   3.397530   4.461027
    11  H    3.185629   2.172130   3.541485   3.293912   3.872730
    12  H    3.565193   2.807264   2.858167   3.543723   4.617901
    13  H    4.399247   3.489635   4.191933   4.214728   5.395578
                    6          7          8          9         10
     6  H    0.000000
     7  H    1.816257   0.000000
     8  C    2.834851   3.500567   0.000000
     9  H    3.102252   2.475897   2.158099   0.000000
    10  C    2.845505   4.030890   1.329472   3.309395   0.000000
    11  H    3.879822   4.365109   1.087572   2.493850   2.080375
    12  H    2.263882   3.698452   2.114572   3.677662   1.083660
    13  H    3.878026   5.112611   2.104197   4.196486   1.082981
                   11         12         13
    11  H    0.000000
    12  H    3.063296   0.000000
    13  H    2.407145   1.845735   0.000000
 Symmetry turned off by external request.
 Stoichiometry    C5H8
 Framework group  C1[X(C5H8)]
 Deg. of freedom    33
 Full point group                 C1      NOp   1
 Rotational constants (GHZ):          11.6474855           3.6647887           3.3177753
 Standard basis: def2TZVP (5D, 7F)
 The following finite field(s) will be applied:
 An electric field of              0.0014  0.0048 -0.0003
   203 basis functions,   319 primitive gaussians,   228 cartesian basis functions
    19 alpha electrons       19 beta electrons
       nuclear repulsion energy       165.0955734330 Hartrees.
 NAtoms=   13 NActive=   13 NUniq=   13 SFac= 1.00D+00 NAtFMM=   60 NAOKFM=F Big=F
 Integral buffers will be    131072 words long.
 Raffenetti 2 integral format.
 Two-electron integral symmetry is turned off.
 One-electron integrals computed using PRISM.
   1 Symmetry operations used in ECPInt.
 ECPInt:  NShTT=    3828 NPrTT=   11160 LenC2=    3810 LenP2D=    9471.
 LDataN:  DoStor=T MaxTD1= 6 Len=  172
 NBasis=   203 RedAO= T EigKep=  1.50D-04  NBF=   203
 NBsUse=   203 1.00D-06 EigRej= -1.00D+00 NBFU=   203
 The nuclear repulsion energy is now       165.3279454473 hartrees.
 Initial guess from the checkpoint file:  "checkpoint.chk"
 B after Tr=    -0.001185   -0.006473   -0.001217
         Rot=    0.999998    0.001430   -0.000148   -0.001331 Ang=   0.22 deg.
 Requested convergence on RMS density matrix=1.00D-08 within 128 cycles.
 Requested convergence on MAX density matrix=1.00D-06.
 Requested convergence on             energy=1.00D-06.
 No special actions if energy rises.
 SCF Done:  E(RB3LYP) =  -195.368840848     A.U. after    8 cycles
            NFock=  8  Conv=0.49D-08     -V/T= 2.0057
   1 Symmetry operations used in ECPInt.
 ECPInt:  NShTT=    3828 NPrTT=   11160 LenC2=    3810 LenP2D=    9471.
 LDataN:  DoStor=T MaxTD1= 7 Len=  274
 Calling FoFJK, ICntrl=      2127 FMM=F ISym2X=0 I1Cent= 0 IOpClX= 0 NMat=1 NMatS=1 NMatT=0.
 -------------------------------------------------------------------
 Center     Atomic                   Forces (Hartrees/Bohr)
 Number     Number              X              Y              Z
 -------------------------------------------------------------------
      1        6           0.000054634   -0.000250612   -0.000174442
      2        6           0.000024123    0.000194500    0.000205548
      3        6          -0.000006492    0.000082145   -0.000062908
      4        1          -0.000039170   -0.000005849    0.000061021
      5        1           0.000013662   -0.000017519    0.000002927
      6        1           0.000000390   -0.000009177    0.000011452
      7        1          -0.000050739   -0.000020147    0.000022017
      8        6           0.000111463   -0.000077601   -0.000099554
      9        1          -0.000110585    0.000042477   -0.000060471
     10        6          -0.000040162    0.000232595   -0.000076836
     11        1           0.000045583   -0.000060723    0.000129136
     12        1           0.000014670   -0.000080563    0.000074343
     13        1          -0.000017379   -0.000029525   -0.000032232
 -------------------------------------------------------------------
 Cartesian Forces:  Max     0.000250612 RMS     0.000093597
 -----------------------------------------------------------------------------------------------
                       Internal Coordinate Forces (Hartree/Bohr or radian)
  Cent   Atom   N1       Length/X         N2         Alpha/Y        N3         Beta/Z          J
 -----------------------------------------------------------------------------------------------
      1  C 
      2  C        1   0.000140(     1)
      3  C        1  -0.000064(     2)      2  -0.000048(    13)
      4  H        1  -0.000022(     3)      2  -0.000117(    14)      3  -0.000071(    24)     0
      5  H        1   0.000009(     4)      2  -0.000017(    15)      3  -0.000033(    25)     0
      6  H        3  -0.000008(     5)      1   0.000022(    16)      2  -0.000076(    26)     0
      7  H        3  -0.000010(     6)      1  -0.000064(    17)      6  -0.000088(    27)     0
      8  C        2  -0.000054(     7)      1  -0.000047(    18)      3  -0.000198(    28)     0
      9  H        2  -0.000033(     8)      1  -0.000106(    19)      8  -0.000221(    29)     0
     10  C        8   0.000069(     9)      2   0.000147(    20)      1   0.000268(    30)     0
     11  H        8  -0.000006(    10)      2   0.000009(    21)     10   0.000280(    31)     0
     12  H       10  -0.000010(    11)      8  -0.000083(    22)      2  -0.000213(    32)     0
     13  H       10  -0.000031(    12)      8  -0.000060(    23)     12  -0.000035(    33)     0
 -----------------------------------------------------------------------------------------------
 Internal  Forces:  Max     0.000279518 RMS     0.000110713

 GradGradGradGradGradGradGradGradGradGradGradGradGradGradGradGradGradGrad
 Berny optimization.
 Search for a local minimum.
 Step number   2 out of a maximum of   43
 All quantities printed in internal units (Hartrees-Bohrs-Radians)
 Update second derivatives using D2CorN and points    1    2
 DE= -5.71D-06 DEPred=-4.32D-06 R= 1.32D+00
 TightC=F SS=  1.41D+00  RLast= 9.71D-03 DXNew= 1.6818D-01 2.9126D-02
 Trust test= 1.32D+00 RLast= 9.71D-03 DXMaxT set to 1.00D-01
 ITU=  1  0
     Eigenvalues ---    0.01297   0.03715   0.06720   0.06944   0.08378
     Eigenvalues ---    0.11046   0.14462   0.16298   0.17227   0.18624
     Eigenvalues ---    0.20536   0.22396   0.23492   0.32592   0.34308
     Eigenvalues ---    0.35082   0.35386   0.35584   0.35695   0.35762
     Eigenvalues ---    0.35780   0.35793   0.35801   0.35905   0.42281
     Eigenvalues ---    0.44380   0.46662   0.49768   0.51277   0.52858
     Eigenvalues ---    0.53030   0.59683   2.59802
 RFO step:  Lambda=-5.43027737D-06 EMin= 1.29745991D-02
 Quartic linear search produced a step of  0.47273.
 Variable       Old X    -DE/DX   Delta X   Delta X   Delta X     New X
                                 (Linear)    (Quad)   (Total)
    R2        2.86471   0.00014  -0.00022   0.00103   0.00080   2.86551
    R3        2.84106  -0.00006   0.00004  -0.00056  -0.00053   2.84053
    R4        2.04498  -0.00002   0.00016  -0.00026  -0.00010   2.04488
    R5        2.04371   0.00001  -0.00021   0.00023   0.00002   2.04373
    R6        2.04435  -0.00001   0.00030  -0.00030   0.00000   2.04435
    R7        2.04384  -0.00001  -0.00008   0.00001  -0.00007   2.04377
    R8        2.79862  -0.00005  -0.00063   0.00021  -0.00042   2.79820
    R9        2.04976  -0.00003  -0.00024   0.00001  -0.00022   2.04953
   R10        2.51234   0.00007   0.00041  -0.00015   0.00026   2.51260
   R11        2.05521  -0.00001  -0.00008   0.00003  -0.00005   2.05517
   R12        2.04782  -0.00001   0.00020  -0.00023  -0.00003   2.04779
   R13        2.04654  -0.00003   0.00032  -0.00045  -0.00012   2.04641
    A3        1.04067  -0.00005   0.00003  -0.00000   0.00002   1.04069
    A4        2.04158  -0.00012  -0.00008  -0.00105  -0.00113   2.04044
    A5        2.06040  -0.00002  -0.00059   0.00061   0.00002   2.06042
    A6        2.05295   0.00002   0.00010   0.00034   0.00043   2.05338
    A7        2.06416  -0.00006  -0.00000  -0.00030  -0.00030   2.06385
    A8        2.09705  -0.00005  -0.00084   0.00016  -0.00067   2.09638
    A9        1.99281  -0.00011   0.00025  -0.00018   0.00007   1.99287
   A10        2.21530   0.00015   0.00045   0.00066   0.00111   2.21641
   A11        2.00052   0.00001  -0.00039  -0.00018  -0.00058   1.99994
   A12        2.13040  -0.00008  -0.00023  -0.00018  -0.00041   2.13000
   A13        2.11355  -0.00006  -0.00027  -0.00002  -0.00030   2.11326
    D4       -1.88001  -0.00007  -0.00022  -0.00124  -0.00145  -1.88146
    D5        1.89674  -0.00003   0.00065  -0.00089  -0.00024   1.89650
    D6       -1.89654  -0.00008   0.00007   0.00005   0.00012  -1.89642
    D7       -2.50886  -0.00009  -0.00052  -0.00043  -0.00095  -2.50980
    D8        1.97063  -0.00020   0.00081  -0.00124  -0.00043   1.97020
    D9        2.44788  -0.00022  -0.00088   0.00015  -0.00073   2.44714
   D10       -1.49329   0.00027   0.00371   0.01422   0.01792  -1.47537
   D11        3.13614   0.00028   0.00076  -0.00215  -0.00139   3.13475
   D12       -0.03008  -0.00021   0.00030  -0.00474  -0.00444  -0.03452
   D13       -3.12852  -0.00003   0.00137   0.00124   0.00262  -3.12590
         Item               Value     Threshold  Converged?
 Maximum Force            0.000280     0.000450     YES
 RMS     Force            0.000111     0.000300     YES
 Maximum Displacement     0.017922     0.001800     NO 
 RMS     Displacement     0.003296     0.001200     NO 
 Predicted change in Energy=-2.919755D-06
 GradGradGradGradGradGradGradGradGradGradGradGradGradGradGradGradGradGrad

 ---------------------------------------------------------------------------------------------------
                            Z-MATRIX (ANGSTROMS AND DEGREES)
   CD    Cent   Atom    N1       Length/X        N2       Alpha/Y        N3        Beta/Z          J
 ---------------------------------------------------------------------------------------------------
      1      1  C 
      2      2  C        1   1.516363(     1)
      3      3  C        1   1.503145(     2)      2   59.627(    13)
      4      4  H        1   1.082106(     3)      2  116.909(    14)      3 -107.800(    24)      0
      5      5  H        1   1.081496(     4)      2  118.054(    15)      3  108.661(    25)      0
      6      6  H        3   1.081826(     5)      1  117.650(    16)      2 -108.657(    26)      0
      7      7  H        3   1.081517(     6)      1  118.250(    17)      6 -143.801(    27)      0
      8      8  C        2   1.480745(     7)      1  120.114(    18)      3  112.884(    28)      0
      9      9  H        2   1.084566(     8)      1  114.183(    19)      8  140.211(    29)      0
     10     10  C        8   1.329611(     9)      2  126.991(    20)      1  -84.533(    30)      0
     11     11  H        8   1.087547(    10)      2  114.588(    21)     10  179.608(    31)      0
     12     12  H       10   1.083643(    11)      8  122.040(    22)      2   -1.978(    32)      0
     13     13  H       10   1.082916(    12)      8  121.081(    23)     12 -179.101(    33)      0
 ---------------------------------------------------------------------------------------------------
                         Z-Matrix orientation:                         
 ---------------------------------------------------------------------
 Center     Atomic      Atomic             Coordinates (Angstroms)
 Number     Number       Type             X           Y           Z
 ---------------------------------------------------------------------
      1          6           0        0.000000    0.000000    0.000000
      2          6           0        0.000000    0.000000    1.516363
      3          6           0        1.296843    0.000000    0.760029
      4          1           0       -0.294976    0.918754   -0.489728
      5          1           0       -0.305394   -0.904250   -0.508624
      6          1           0        1.884984    0.907923    0.749399
      7          1           0        1.883679   -0.908393    0.771122
      8          6           0       -0.498100    1.180074    2.259280
      9          1           0       -0.287695   -0.946632    1.960663
     10          6           0        0.187009    2.275515    2.573130
     11          1           0       -1.540773    1.117214    2.562001
     12          1           0        1.235138    2.389516    2.322709
     13          1           0       -0.280314    3.093202    3.107643
 ---------------------------------------------------------------------
                    Distance matrix (angstroms):
                    1          2          3          4          5
     1  C    0.000000
     2  C    1.516363   0.000000
     3  C    1.503145   1.501280   0.000000
     4  H    1.082106   2.226100   2.222586   0.000000
     5  H    1.081496   2.238640   2.234796   1.823132   0.000000
     6  H    2.222406   2.228390   1.081826   2.507544   3.108754
     7  H    2.228913   2.220092   1.081517   3.110426   2.535707
     8  C    2.597119   1.480745   2.619571   2.768862   3.470280
     9  H    2.196151   1.084566   2.201907   3.079633   2.469714
    10  C    3.440049   2.515889   3.114006   3.384407   4.455399
    11  H    3.191551   2.171522   3.542222   3.302189   3.878301
    12  H    3.553917   2.808121   2.855794   3.523378   4.608533
    13  H    4.393623   3.489792   4.191254   4.203513   5.390514
                    6          7          8          9         10
     6  H    0.000000
     7  H    1.816447   0.000000
     8  C    2.834237   3.499884   0.000000
     9  H    3.102752   2.476153   2.157852   0.000000
    10  C    2.842433   4.032765   1.329611   3.314015   0.000000
    11  H    3.881384   4.363165   1.087547   2.488227   2.080148
    12  H    2.256706   3.701923   2.114447   3.685103   1.083643
    13  H    3.876245   5.114192   2.104093   4.199509   1.082916
                   11         12         13
    11  H    0.000000
    12  H    3.062955   0.000000
    13  H    2.406452   1.846048   0.000000
 Symmetry turned off by external request.
 Stoichiometry    C5H8
 Framework group  C1[X(C5H8)]
 Deg. of freedom    33
 Full point group                 C1      NOp   1
 Rotational constants (GHZ):          11.6247082           3.6673531           3.3244780
 Standard basis: def2TZVP (5D, 7F)
 The following finite field(s) will be applied:
 An electric field of              0.0014  0.0048 -0.0003
   203 basis functions,   319 primitive gaussians,   228 cartesian basis functions
    19 alpha electrons       19 beta electrons
       nuclear repulsion energy       165.1180072472 Hartrees.
 NAtoms=   13 NActive=   13 NUniq=   13 SFac= 1.00D+00 NAtFMM=   60 NAOKFM=F Big=F
 Integral buffers will be    131072 words long.
 Raffenetti 2 integral format.
 Two-electron integral symmetry is turned off.
 One-electron integrals computed using PRISM.
   1 Symmetry operations used in ECPInt.
 ECPInt:  NShTT=    3828 NPrTT=   11160 LenC2=    3810 LenP2D=    9472.
 LDataN:  DoStor=T MaxTD1= 6 Len=  172
 NBasis=   203 RedAO= T EigKep=  1.50D-04  NBF=   203
 NBsUse=   203 1.00D-06 EigRej= -1.00D+00 NBFU=   203
 The nuclear repulsion energy is now       165.3510068044 hartrees.
 Initial guess from the checkpoint file:  "checkpoint.chk"
 B after Tr=    -0.003052   -0.009432    0.000087
         Rot=    0.999996    0.002263   -0.000885   -0.001501 Ang=   0.33 deg.
 Requested convergence on RMS density matrix=1.00D-08 within 128 cycles.
 Requested convergence on MAX density matrix=1.00D-06.
 Requested convergence on             energy=1.00D-06.
 No special actions if energy rises.
 SCF Done:  E(RB3LYP) =  -195.368845014     A.U. after    8 cycles
            NFock=  8  Conv=0.79D-08     -V/T= 2.0056
   1 Symmetry operations used in ECPInt.
 ECPInt:  NShTT=    3828 NPrTT=   11160 LenC2=    3810 LenP2D=    9472.
 LDataN:  DoStor=T MaxTD1= 7 Len=  274
 Calling FoFJK, ICntrl=      2127 FMM=F ISym2X=0 I1Cent= 0 IOpClX= 0 NMat=1 NMatS=1 NMatT=0.
 -------------------------------------------------------------------
 Center     Atomic                   Forces (Hartrees/Bohr)
 Number     Number              X              Y              Z
 -------------------------------------------------------------------
      1        6           0.000013496   -0.000260455   -0.000118784
      2        6           0.000045536    0.000240765    0.000175082
      3        6          -0.000070358    0.000051715   -0.000049233
      4        1           0.000012343    0.000005512    0.000008765
      5        1          -0.000010202   -0.000012161    0.000019128
      6        1           0.000011753   -0.000044766    0.000012635
      7        1           0.000001638   -0.000013892   -0.000009913
      8        6          -0.000016104    0.000042118   -0.000059649
      9        1          -0.000010479   -0.000001475   -0.000039843
     10        6           0.000002940   -0.000044595    0.000020024
     11        1           0.000011722   -0.000014605    0.000054539
     12        1          -0.000005436    0.000052458    0.000012075
     13        1           0.000013150   -0.000000618   -0.000024826
 -------------------------------------------------------------------
 Cartesian Forces:  Max     0.000260455 RMS     0.000072160
 -----------------------------------------------------------------------------------------------
                       Internal Coordinate Forces (Hartree/Bohr or radian)
  Cent   Atom   N1       Length/X         N2         Alpha/Y        N3         Beta/Z          J
 -----------------------------------------------------------------------------------------------
      1  C 
      2  C        1   0.000137(     1)
      3  C        1  -0.000073(     2)      2   0.000029(    13)
      4  H        1  -0.000003(     3)      2  -0.000017(    14)      3   0.000025(    24)     0
      5  H        1   0.000004(     4)      2  -0.000049(    15)      3   0.000010(    25)     0
      6  H        3  -0.000031(     5)      1   0.000072(    16)      2  -0.000009(    26)     0
      7  H        3   0.000012(     6)      1  -0.000022(    17)      6   0.000009(    27)     0
      8  C        2   0.000027(     7)      1  -0.000003(    18)      3   0.000038(    28)     0
      9  H        2  -0.000012(     8)      1  -0.000078(    19)      8  -0.000018(    29)     0
     10  C        8   0.000013(     9)      2   0.000077(    20)      1   0.000115(    30)     0
     11  H        8   0.000005(    10)      2   0.000022(    21)     10   0.000105(    31)     0
     12  H       10  -0.000003(    11)      8   0.000108(    22)      2  -0.000010(    32)     0
     13  H       10  -0.000018(    12)      8   0.000024(    23)     12  -0.000031(    33)     0
 -----------------------------------------------------------------------------------------------
 Internal  Forces:  Max     0.000137402 RMS     0.000051839

 GradGradGradGradGradGradGradGradGradGradGradGradGradGradGradGradGradGrad
 Berny optimization.
 Search for a local minimum.
 Step number   3 out of a maximum of   43
 All quantities printed in internal units (Hartrees-Bohrs-Radians)
 Update second derivatives using D2CorN and points    1    2    3
 DE= -4.17D-06 DEPred=-2.92D-06 R= 1.43D+00
 TightC=F SS=  1.41D+00  RLast= 1.89D-02 DXNew= 1.6818D-01 5.6809D-02
 Trust test= 1.43D+00 RLast= 1.89D-02 DXMaxT set to 1.00D-01
 ITU=  1  1  0
     Eigenvalues ---    0.00872   0.03733   0.06708   0.06902   0.08295
     Eigenvalues ---    0.11054   0.14469   0.16288   0.17232   0.18612
     Eigenvalues ---    0.20478   0.22396   0.23460   0.32591   0.34313
     Eigenvalues ---    0.35082   0.35384   0.35584   0.35697   0.35763
     Eigenvalues ---    0.35780   0.35794   0.35802   0.35908   0.42286
     Eigenvalues ---    0.44374   0.46672   0.49765   0.51266   0.52854
     Eigenvalues ---    0.53030   0.59678   2.59803
 RFO step:  Lambda=-7.78095406D-07 EMin= 8.72018273D-03
 Quartic linear search produced a step of  0.49018.
 Variable       Old X    -DE/DX   Delta X   Delta X   Delta X     New X
                                 (Linear)    (Quad)   (Total)
    R2        2.86551   0.00014   0.00039   0.00045   0.00084   2.86635
    R3        2.84053  -0.00007  -0.00026  -0.00029  -0.00055   2.83998
    R4        2.04488  -0.00000  -0.00005   0.00001  -0.00004   2.04485
    R5        2.04373   0.00000   0.00001   0.00001   0.00002   2.04375
    R6        2.04435  -0.00003   0.00000  -0.00013  -0.00013   2.04423
    R7        2.04377   0.00001  -0.00003   0.00006   0.00003   2.04380
    R8        2.79820   0.00003  -0.00021   0.00016  -0.00004   2.79816
    R9        2.04953  -0.00001  -0.00011  -0.00003  -0.00014   2.04939
   R10        2.51260   0.00001   0.00013  -0.00000   0.00013   2.51273
   R11        2.05517   0.00000  -0.00002   0.00003   0.00000   2.05517
   R12        2.04779  -0.00000  -0.00002  -0.00000  -0.00002   2.04777
   R13        2.04641  -0.00002  -0.00006  -0.00005  -0.00011   2.04630
    A3        1.04069   0.00003   0.00001   0.00001   0.00002   1.04071
    A4        2.04044  -0.00002  -0.00056   0.00021  -0.00034   2.04010
    A5        2.06042  -0.00005   0.00001  -0.00033  -0.00032   2.06010
    A6        2.05338   0.00007   0.00021   0.00035   0.00056   2.05394
    A7        2.06385  -0.00002  -0.00015  -0.00024  -0.00039   2.06346
    A8        2.09638  -0.00000  -0.00033  -0.00000  -0.00033   2.09605
    A9        1.99287  -0.00008   0.00003  -0.00003   0.00000   1.99288
   A10        2.21641   0.00008   0.00054   0.00031   0.00086   2.21727
   A11        1.99994   0.00002  -0.00028  -0.00006  -0.00035   1.99960
   A12        2.13000   0.00011  -0.00020   0.00081   0.00061   2.13061
   A13        2.11326   0.00002  -0.00015  -0.00027  -0.00042   2.11284
    D4       -1.88146   0.00002  -0.00071   0.00042  -0.00030  -1.88176
    D5        1.89650   0.00001  -0.00012   0.00036   0.00024   1.89674
    D6       -1.89642  -0.00001   0.00006  -0.00008  -0.00002  -1.89644
    D7       -2.50980   0.00001  -0.00046   0.00030  -0.00017  -2.50997
    D8        1.97020   0.00004  -0.00021   0.00041   0.00019   1.97040
    D9        2.44714  -0.00002  -0.00036   0.00018  -0.00018   2.44697
   D10       -1.47537   0.00012   0.00879   0.00337   0.01216  -1.46321
   D11        3.13475   0.00011  -0.00068   0.00024  -0.00044   3.13431
   D12       -0.03452  -0.00001  -0.00218   0.00158  -0.00060  -0.03512
   D13       -3.12590  -0.00003   0.00128  -0.00116   0.00013  -3.12577
         Item               Value     Threshold  Converged?
 Maximum Force            0.000137     0.000450     YES
 RMS     Force            0.000052     0.000300     YES
 Maximum Displacement     0.012157     0.001800     NO 
 RMS     Displacement     0.002145     0.001200     NO 
 Predicted change in Energy=-8.157378D-07
 GradGradGradGradGradGradGradGradGradGradGradGradGradGradGradGradGradGrad

 ---------------------------------------------------------------------------------------------------
                            Z-MATRIX (ANGSTROMS AND DEGREES)
   CD    Cent   Atom    N1       Length/X        N2       Alpha/Y        N3        Beta/Z          J
 ---------------------------------------------------------------------------------------------------
      1      1  C 
      2      2  C        1   1.516809(     1)
      3      3  C        1   1.502853(     2)      2   59.628(    13)
      4      4  H        1   1.082086(     3)      2  116.889(    14)      3 -107.817(    24)      0
      5      5  H        1   1.081505(     4)      2  118.035(    15)      3  108.675(    25)      0
      6      6  H        3   1.081760(     5)      1  117.682(    16)      2 -108.658(    26)      0
      7      7  H        3   1.081532(     6)      1  118.228(    17)      6 -143.811(    27)      0
      8      8  C        2   1.480723(     7)      1  120.095(    18)      3  112.895(    28)      0
      9      9  H        2   1.084493(     8)      1  114.183(    19)      8  140.201(    29)      0
     10     10  C        8   1.329679(     9)      2  127.040(    20)      1  -83.836(    30)      0
     11     11  H        8   1.087549(    10)      2  114.568(    21)     10  179.583(    31)      0
     12     12  H       10   1.083633(    11)      8  122.075(    22)      2   -2.012(    32)      0
     13     13  H       10   1.082858(    12)      8  121.057(    23)     12 -179.094(    33)      0
 ---------------------------------------------------------------------------------------------------
                         Z-Matrix orientation:                         
 ---------------------------------------------------------------------
 Center     Atomic      Atomic             Coordinates (Angstroms)
 Number     Number       Type             X           Y           Z
 ---------------------------------------------------------------------
      1          6           0        0.000000    0.000000    0.000000
      2          6           0        0.000000    0.000000    1.516809
      3          6           0        1.296606    0.000000    0.759855
      4          1           0       -0.295293    0.918810   -0.489387
      5          1           0       -0.305670   -0.904339   -0.508321
      6          1           0        1.885138    0.907595    0.749548
      7          1           0        1.883073   -0.908651    0.770839
      8          6           0       -0.498418    1.180188    2.259290
      9          1           0       -0.287657   -0.946572    1.961083
     10          6           0        0.181842    2.281763    2.562315
     11          1           0       -1.537889    1.111972    2.571716
     12          1           0        1.226933    2.402437    2.302542
     13          1           0       -0.286787    3.098288    3.097343
 ---------------------------------------------------------------------
                    Distance matrix (angstroms):
                    1          2          3          4          5
     1  C    0.000000
     2  C    1.516809   0.000000
     3  C    1.502853   1.501388   0.000000
     4  H    1.082086   2.226260   2.222377   0.000000
     5  H    1.081505   2.238842   2.234589   1.823277   0.000000
     6  H    2.222453   2.228489   1.081760   2.507860   3.108854
     7  H    2.228409   2.219929   1.081532   3.110155   2.535127
     8  C    2.597240   1.480723   2.619783   2.768538   3.470169
     9  H    2.196495   1.084493   2.202008   3.079693   2.469830
    10  C    3.435836   2.516464   3.114162   3.376119   4.451709
    11  H    3.196139   2.171270   3.543118   3.309336   3.882074
    12  H    3.546656   2.809705   2.855949   3.509015   4.602672
    13  H    4.390350   3.489946   4.191703   4.197002   5.387225
                    6          7          8          9         10
     6  H    0.000000
     7  H    1.816372   0.000000
     8  C    2.834602   3.500034   0.000000
     9  H    3.102707   2.475922   2.157882   0.000000
    10  C    2.841774   4.035135   1.329679   3.317237   0.000000
    11  H    3.883191   4.362231   1.087549   2.484664   2.079897
    12  H    2.253792   3.706742   2.114853   3.691401   1.083633
    13  H    3.876666   5.116295   2.103861   4.201427   1.082858
                   11         12         13
    11  H    0.000000
    12  H    3.063004   0.000000
    13  H    2.405617   1.845878   0.000000
 Symmetry turned off by external request.
 Stoichiometry    C5H8
 Framework group  C1[X(C5H8)]
 Deg. of freedom    33
 Full point group                 C1      NOp   1
 Rotational constants (GHZ):          11.6106701           3.6676648           3.3281562
 Standard basis: def2TZVP (5D, 7F)
 The following finite field(s) will be applied:
 An electric field of              0.0014  0.0048 -0.0003
   203 basis functions,   319 primitive gaussians,   228 cartesian basis functions
    19 alpha electrons       19 beta electrons
       nuclear repulsion energy       165.1223070531 Hartrees.
 NAtoms=   13 NActive=   13 NUniq=   13 SFac= 1.00D+00 NAtFMM=   60 NAOKFM=F Big=F
 Integral buffers will be    131072 words long.
 Raffenetti 2 integral format.
 Two-electron integral symmetry is turned off.
 One-electron integrals computed using PRISM.
   1 Symmetry operations used in ECPInt.
 ECPInt:  NShTT=    3828 NPrTT=   11160 LenC2=    3810 LenP2D=    9474.
 LDataN:  DoStor=T MaxTD1= 6 Len=  172
 NBasis=   203 RedAO= T EigKep=  1.49D-04  NBF=   203
 NBsUse=   203 1.00D-06 EigRej= -1.00D+00 NBFU=   203
 The nuclear repulsion energy is now       165.3556759670 hartrees.
 Initial guess from the checkpoint file:  "checkpoint.chk"
 B after Tr=    -0.002311   -0.006467    0.000344
         Rot=    0.999998    0.001508   -0.000613   -0.001240 Ang=   0.23 deg.
 Requested convergence on RMS density matrix=1.00D-08 within 128 cycles.
 Requested convergence on MAX density matrix=1.00D-06.
 Requested convergence on             energy=1.00D-06.
 No special actions if energy rises.
 SCF Done:  E(RB3LYP) =  -195.368845952     A.U. after    8 cycles
            NFock=  8  Conv=0.54D-08     -V/T= 2.0057
   1 Symmetry operations used in ECPInt.
 ECPInt:  NShTT=    3828 NPrTT=   11160 LenC2=    3810 LenP2D=    9474.
 LDataN:  DoStor=T MaxTD1= 7 Len=  274
 Calling FoFJK, ICntrl=      2127 FMM=F ISym2X=0 I1Cent= 0 IOpClX= 0 NMat=1 NMatS=1 NMatT=0.
 -------------------------------------------------------------------
 Center     Atomic                   Forces (Hartrees/Bohr)
 Number     Number              X              Y              Z
 -------------------------------------------------------------------
      1        6          -0.000035275   -0.000265472   -0.000045396
      2        6           0.000051838    0.000321970    0.000068475
      3        6          -0.000070706   -0.000028502   -0.000020839
      4        1          -0.000011515    0.000001289    0.000012968
      5        1           0.000004236   -0.000001245    0.000003428
      6        1           0.000025179   -0.000004410   -0.000004967
      7        1           0.000015993    0.000001126    0.000015672
      8        6          -0.000009295    0.000018823   -0.000031851
      9        1           0.000000491   -0.000005330   -0.000033545
     10        6           0.000006719   -0.000099960    0.000036442
     11        1           0.000016976   -0.000008729    0.000021348
     12        1           0.000001490    0.000034319    0.000001308
     13        1           0.000003869    0.000036121   -0.000023042
 -------------------------------------------------------------------
 Cartesian Forces:  Max     0.000321970 RMS     0.000073451
 -----------------------------------------------------------------------------------------------
                       Internal Coordinate Forces (Hartree/Bohr or radian)
  Cent   Atom   N1       Length/X         N2         Alpha/Y        N3         Beta/Z          J
 -----------------------------------------------------------------------------------------------
      1  C 
      2  C        1   0.000039(     1)
      3  C        1  -0.000031(     2)      2  -0.000030(    13)
      4  H        1  -0.000002(     3)      2  -0.000028(    14)      3  -0.000019(    24)     0
      5  H        1  -0.000002(     4)      2  -0.000006(    15)      3  -0.000008(    25)     0
      6  H        3   0.000010(     5)      1   0.000034(    16)      2  -0.000040(    26)     0
      7  H        3   0.000008(     6)      1   0.000042(    17)      6  -0.000009(    27)     0
      8  C        2  -0.000020(     7)      1   0.000049(    18)      3  -0.000036(    28)     0
      9  H        2  -0.000009(     8)      1  -0.000067(    19)      8   0.000004(    29)     0
     10  C        8  -0.000015(     9)      2  -0.000018(    20)      1   0.000011(    30)     0
     11  H        8  -0.000010(    10)      2   0.000005(    21)     10   0.000050(    31)     0
     12  H       10   0.000005(    11)      8   0.000065(    22)      2  -0.000038(    32)     0
     13  H       10   0.000014(    12)      8   0.000046(    23)     12  -0.000059(    33)     0
 -----------------------------------------------------------------------------------------------
 Internal  Forces:  Max     0.000066875 RMS     0.000031561

 GradGradGradGradGradGradGradGradGradGradGradGradGradGradGradGradGradGrad
 Berny optimization.
 Search for a local minimum.
 Step number   4 out of a maximum of   43
 All quantities printed in internal units (Hartrees-Bohrs-Radians)
 Update second derivatives using D2CorN and points    1    2    3    4
 DE= -9.38D-07 DEPred=-8.16D-07 R= 1.15D+00
 Trust test= 1.15D+00 RLast= 1.23D-02 DXMaxT set to 1.00D-01
 ITU=  0  1  1  0
     Eigenvalues ---    0.00825   0.03722   0.06708   0.06894   0.08309
     Eigenvalues ---    0.11062   0.14468   0.16283   0.17230   0.18613
     Eigenvalues ---    0.20462   0.22395   0.23456   0.32590   0.34313
     Eigenvalues ---    0.35082   0.35384   0.35584   0.35698   0.35763
     Eigenvalues ---    0.35779   0.35795   0.35802   0.35909   0.42285
     Eigenvalues ---    0.44368   0.46672   0.49766   0.51265   0.52852
     Eigenvalues ---    0.53030   0.59679   2.59803
 RFO step:  Lambda=-1.43549442D-07 EMin= 8.24858286D-03
 Quartic linear search produced a step of  0.11022.
 Variable       Old X    -DE/DX   Delta X   Delta X   Delta X     New X
                                 (Linear)    (Quad)   (Total)
    R2        2.86635   0.00004   0.00009   0.00010   0.00019   2.86654
    R3        2.83998  -0.00003  -0.00006  -0.00008  -0.00014   2.83984
    R4        2.04485  -0.00000  -0.00000  -0.00000  -0.00001   2.04484
    R5        2.04375  -0.00000   0.00000  -0.00001  -0.00001   2.04374
    R6        2.04423   0.00001  -0.00001   0.00004   0.00003   2.04426
    R7        2.04380   0.00001   0.00000   0.00002   0.00002   2.04382
    R8        2.79816  -0.00002  -0.00000  -0.00008  -0.00008   2.79808
    R9        2.04939  -0.00001  -0.00002  -0.00003  -0.00004   2.04935
   R10        2.51273  -0.00001   0.00001  -0.00003  -0.00001   2.51271
   R11        2.05517  -0.00001   0.00000  -0.00003  -0.00003   2.05514
   R12        2.04777   0.00000  -0.00000   0.00002   0.00002   2.04779
   R13        2.04630   0.00001  -0.00001   0.00005   0.00004   2.04634
    A3        1.04071  -0.00003   0.00000  -0.00001  -0.00001   1.04070
    A4        2.04010  -0.00003  -0.00004  -0.00014  -0.00018   2.03992
    A5        2.06010  -0.00001  -0.00004   0.00002  -0.00002   2.06008
    A6        2.05394   0.00003   0.00006   0.00004   0.00010   2.05405
    A7        2.06346   0.00004  -0.00004   0.00013   0.00009   2.06355
    A8        2.09605   0.00005  -0.00004   0.00027   0.00023   2.09628
    A9        1.99288  -0.00007   0.00000  -0.00024  -0.00024   1.99264
   A10        2.21727  -0.00002   0.00009  -0.00013  -0.00004   2.21723
   A11        1.99960   0.00000  -0.00004   0.00007   0.00003   1.99963
   A12        2.13061   0.00006   0.00007   0.00013   0.00019   2.13080
   A13        2.11284   0.00005  -0.00005   0.00011   0.00007   2.11291
    D4       -1.88176  -0.00002  -0.00003  -0.00020  -0.00023  -1.88199
    D5        1.89674  -0.00001   0.00003  -0.00006  -0.00003   1.89671
    D6       -1.89644  -0.00004  -0.00000  -0.00015  -0.00015  -1.89659
    D7       -2.50997  -0.00001  -0.00002   0.00001  -0.00001  -2.50998
    D8        1.97040  -0.00004   0.00002  -0.00036  -0.00034   1.97005
    D9        2.44697   0.00000  -0.00002   0.00027   0.00025   2.44722
   D10       -1.46321   0.00001   0.00134   0.00030   0.00164  -1.46158
   D11        3.13431   0.00005  -0.00005   0.00017   0.00012   3.13443
   D12       -0.03512  -0.00004  -0.00007   0.00008   0.00001  -0.03511
   D13       -3.12577  -0.00006   0.00001  -0.00065  -0.00064  -3.12641
         Item               Value     Threshold  Converged?
 Maximum Force            0.000067     0.000450     YES
 RMS     Force            0.000032     0.000300     YES
 Maximum Displacement     0.001636     0.001800     YES
 RMS     Displacement     0.000332     0.001200     YES
 Predicted change in Energy=-7.559034D-08
 Optimization completed.
    -- Stationary point found.
                       ----------------------------
                       !   Optimized Parameters   !
                       ! (Angstroms and Degrees)  !
 ----------------------                            ----------------------
 !      Name          Value   Derivative information (Atomic Units)     !
 ------------------------------------------------------------------------
 !       R2          1.5168   -DE/DX =    0.0                           !
 !       R3          1.5029   -DE/DX =    0.0                           !
 !       R4          1.0821   -DE/DX =    0.0                           !
 !       R5          1.0815   -DE/DX =    0.0                           !
 !       R6          1.0818   -DE/DX =    0.0                           !
 !       R7          1.0815   -DE/DX =    0.0                           !
 !       R8          1.4807   -DE/DX =    0.0                           !
 !       R9          1.0845   -DE/DX =    0.0                           !
 !       R10         1.3297   -DE/DX =    0.0                           !
 !       R11         1.0875   -DE/DX =    0.0                           !
 !       R12         1.0836   -DE/DX =    0.0                           !
 !       R13         1.0829   -DE/DX =    0.0                           !
 !       A3         59.6283   -DE/DX =    0.0                           !
 !       A4        116.8889   -DE/DX =    0.0                           !
 !       A5        118.0351   -DE/DX =    0.0                           !
 !       A6        117.6824   -DE/DX =    0.0                           !
 !       A7        118.2275   -DE/DX =    0.0                           !
 !       A8        120.0947   -DE/DX =    0.0                           !
 !       A9        114.1835   -DE/DX =   -0.0001                        !
 !       A10       127.04     -DE/DX =    0.0                           !
 !       A11       114.5684   -DE/DX =    0.0                           !
 !       A12       122.0748   -DE/DX =    0.0001                        !
 !       A13       121.0568   -DE/DX =    0.0                           !
 !       D4       -107.8167   -DE/DX =    0.0                           !
 !       D5        108.6755   -DE/DX =    0.0                           !
 !       D6       -108.6578   -DE/DX =    0.0                           !
 !       D7       -143.8107   -DE/DX =    0.0                           !
 !       D8        112.8954   -DE/DX =    0.0                           !
 !       D9        140.2009   -DE/DX =    0.0                           !
 !       D10       -83.836    -DE/DX =    0.0                           !
 !       D11       179.5828   -DE/DX =    0.0001                        !
 !       D12        -2.0122   -DE/DX =    0.0                           !
 !       D13      -179.0936   -DE/DX =   -0.0001                        !
 ------------------------------------------------------------------------
 GradGradGradGradGradGradGradGradGradGradGradGradGradGradGradGradGradGrad

 ---------------------------------------------------------------------------------------------------
                            Z-MATRIX (ANGSTROMS AND DEGREES)
   CD    Cent   Atom    N1       Length/X        N2       Alpha/Y        N3        Beta/Z          J
 ---------------------------------------------------------------------------------------------------
      1      1  C 
      2      2  C        1   1.516809(     1)
      3      3  C        1   1.502853(     2)      2   59.628(    13)
      4      4  H        1   1.082086(     3)      2  116.889(    14)      3 -107.817(    24)      0
      5      5  H        1   1.081505(     4)      2  118.035(    15)      3  108.675(    25)      0
      6      6  H        3   1.081760(     5)      1  117.682(    16)      2 -108.658(    26)      0
      7      7  H        3   1.081532(     6)      1  118.228(    17)      6 -143.811(    27)      0
      8      8  C        2   1.480723(     7)      1  120.095(    18)      3  112.895(    28)      0
      9      9  H        2   1.084493(     8)      1  114.183(    19)      8  140.201(    29)      0
     10     10  C        8   1.329679(     9)      2  127.040(    20)      1  -83.836(    30)      0
     11     11  H        8   1.087549(    10)      2  114.568(    21)     10  179.583(    31)      0
     12     12  H       10   1.083633(    11)      8  122.075(    22)      2   -2.012(    32)      0
     13     13  H       10   1.082858(    12)      8  121.057(    23)     12 -179.094(    33)      0
 ---------------------------------------------------------------------------------------------------
                         Z-Matrix orientation:                         
 ---------------------------------------------------------------------
 Center     Atomic      Atomic             Coordinates (Angstroms)
 Number     Number       Type             X           Y           Z
 ---------------------------------------------------------------------
      1          6           0        0.000000    0.000000    0.000000
      2          6           0        0.000000    0.000000    1.516809
      3          6           0        1.296606    0.000000    0.759855
      4          1           0       -0.295293    0.918810   -0.489387
      5          1           0       -0.305670   -0.904339   -0.508321
      6          1           0        1.885138    0.907595    0.749548
      7          1           0        1.883073   -0.908651    0.770839
      8          6           0       -0.498418    1.180188    2.259290
      9          1           0       -0.287657   -0.946572    1.961083
     10          6           0        0.181842    2.281763    2.562315
     11          1           0       -1.537889    1.111972    2.571716
     12          1           0        1.226933    2.402437    2.302542
     13          1           0       -0.286787    3.098288    3.097343
 ---------------------------------------------------------------------
                    Distance matrix (angstroms):
                    1          2          3          4          5
     1  C    0.000000
     2  C    1.516809   0.000000
     3  C    1.502853   1.501388   0.000000
     4  H    1.082086   2.226260   2.222377   0.000000
     5  H    1.081505   2.238842   2.234589   1.823277   0.000000
     6  H    2.222453   2.228489   1.081760   2.507860   3.108854
     7  H    2.228409   2.219929   1.081532   3.110155   2.535127
     8  C    2.597240   1.480723   2.619783   2.768538   3.470169
     9  H    2.196495   1.084493   2.202008   3.079693   2.469830
    10  C    3.435836   2.516464   3.114162   3.376119   4.451709
    11  H    3.196139   2.171270   3.543118   3.309336   3.882074
    12  H    3.546656   2.809705   2.855949   3.509015   4.602672
    13  H    4.390350   3.489946   4.191703   4.197002   5.387225
                    6          7          8          9         10
     6  H    0.000000
     7  H    1.816372   0.000000
     8  C    2.834602   3.500034   0.000000
     9  H    3.102707   2.475922   2.157882   0.000000
    10  C    2.841774   4.035135   1.329679   3.317237   0.000000
    11  H    3.883191   4.362231   1.087549   2.484664   2.079897
    12  H    2.253792   3.706742   2.114853   3.691401   1.083633
    13  H    3.876666   5.116295   2.103861   4.201427   1.082858
                   11         12         13
    11  H    0.000000
    12  H    3.063004   0.000000
    13  H    2.405617   1.845878   0.000000
 Symmetry turned off by external request.
 Stoichiometry    C5H8
 Framework group  C1[X(C5H8)]
 Deg. of freedom    33
 Full point group                 C1      NOp   1
 Rotational constants (GHZ):          11.6106701           3.6676648           3.3281562
 1\1\GINC-BHC0106\FOpt\RB3LYP\def2TZVP\C5H8\DHANAWAY\10-Jun-2022\1\\# O
 pt=(Z-matrix, MaxStep=10) B3LYP/Def2TZVP geom=allcheckpoint guess=read
  Field=read NoSymm freq=noraman pop=none\\int_zmat_initalOpt\\0,1\C\C,
 1,R2\C,1,R3,2,A3\H,1,R4,2,A4,3,D4,0\H,1,R5,2,A5,3,D5,0\H,3,R6,1,A6,2,D
 6,0\H,3,R7,1,A7,6,D7,0\C,2,R8,1,A8,3,D8,0\H,2,R9,1,A9,8,D9,0\C,8,R10,2
 ,A10,1,D10,0\H,8,R11,2,A11,10,D11,0\H,10,R12,8,A12,2,D12,0\H,10,R13,8,
 A13,12,D13,0\\R2=1.51680933\R3=1.50285271\R4=1.08208578\R5=1.08150482\
 R6=1.08175965\R7=1.08153206\R8=1.48072322\R9=1.08449285\R10=1.32967898
 \R11=1.08754879\R12=1.08363288\R13=1.08285786\A3=59.62825889\A4=116.88
 89269\A5=118.03510788\A6=117.6823654\A7=118.22751654\A8=120.09472557\A
 9=114.18347676\A10=127.03996496\A11=114.56840507\A12=122.07484306\A13=
 121.05676235\D4=-107.81668893\D5=108.6754567\D6=-108.65778791\D7=-143.
 81072284\D8=112.89536029\D9=140.2009469\D10=-83.83597715\D11=179.58275
 834\D12=-2.01219791\D13=-179.09362855\\Version=ES64L-G16RevA.03\HF=-19
 5.368846\RMSD=5.386e-09\RMSF=7.345e-05\Dipole=-0.118512,-0.4635547,-0.
 1252086\PG=C01 [X(C5H8)]\\@


 ABALONE: AN EXPRESSION OF DISBELIEF.
 Job cpu time:       0 days  0 hours 16 minutes  1.6 seconds.
 Elapsed time:       0 days  0 hours  1 minutes 21.3 seconds.
 File lengths (MBytes):  RWF=     27 Int=      0 D2E=      0 Chk=     32 Scr=      1
 Normal termination of Gaussian 16 at Fri Jun 10 03:18:45 2022.
 Link1:  Proceeding to internal job step number  2.
 --------------------------------------------------------------------
 #N Geom=AllCheck Guess=TCheck SCRF=Check GenChk RB3LYP/def2TZVP Freq
 --------------------------------------------------------------------
 1/8=10,10=4,29=7,30=1,38=1,40=1/1,3;
 2/12=2,15=1,40=1/2;
 3/5=44,7=101,11=2,14=-4,25=1,30=1,70=2,71=2,74=-5,116=1,140=1/1,2,3;
 4/5=101/1;
 5/5=2,38=6,98=1/2;
 8/6=4,10=90,11=11/1;
 11/6=1,8=1,9=11,15=111,16=1,31=1/1,2,10;
 10/6=1,31=1/2;
 7/8=1,10=1,25=1,30=1/1,2,3,16;
 1/8=10,10=4,30=1/3;
 99//99;
 Structure from the checkpoint file:  "checkpoint.chk"
 ------------------
 int_zmat_initalOpt
 ------------------
 Charge =  0 Multiplicity = 1
 Z-Matrix found in chk file.
 C
 C,1,R2
 C,1,R3,2,A3
 H,1,R4,2,A4,3,D4,0
 H,1,R5,2,A5,3,D5,0
 H,3,R6,1,A6,2,D6,0
 H,3,R7,1,A7,6,D7,0
 C,2,R8,1,A8,3,D8,0
 H,2,R9,1,A9,8,D9,0
 C,8,R10,2,A10,1,D10,0
 H,8,R11,2,A11,10,D11,0
 H,10,R12,8,A12,2,D12,0
 H,10,R13,8,A13,12,D13,0
      Variables:
 R2=1.51680933
 R3=1.50285271
 R4=1.08208578
 R5=1.08150482
 R6=1.08175965
 R7=1.08153206
 R8=1.48072322
 R9=1.08449285
 R10=1.32967898
 R11=1.08754879
 R12=1.08363288
 R13=1.08285786
 A3=59.62825889
 A4=116.8889269
 A5=118.03510788
 A6=117.6823654
 A7=118.22751654
 A8=120.09472557
 A9=114.18347676
 A10=127.03996496
 A11=114.56840507
 A12=122.07484306
 A13=121.05676235
 D4=-107.81668893
 D5=108.6754567
 D6=-108.65778791
 D7=-143.81072284
 D8=112.89536029
 D9=140.2009469
 D10=-83.83597715
 D11=179.58275834
 D12=-2.01219791
 D13=-179.09362855
 Recover connectivity data from disk.

 GradGradGradGradGradGradGradGradGradGradGradGradGradGradGradGradGradGrad
 Berny optimization.
 Initialization pass.
                       ----------------------------
                       !    Initial Parameters    !
                       ! (Angstroms and Degrees)  !
 ----------------------                            ----------------------
 !      Name          Value   Derivative information (Atomic Units)     !
 ------------------------------------------------------------------------
 !       R2          1.5168   calculate D2E/DX2 analytically            !
 !       R3          1.5029   calculate D2E/DX2 analytically            !
 !       R4          1.0821   calculate D2E/DX2 analytically            !
 !       R5          1.0815   calculate D2E/DX2 analytically            !
 !       R6          1.0818   calculate D2E/DX2 analytically            !
 !       R7          1.0815   calculate D2E/DX2 analytically            !
 !       R8          1.4807   calculate D2E/DX2 analytically            !
 !       R9          1.0845   calculate D2E/DX2 analytically            !
 !       R10         1.3297   calculate D2E/DX2 analytically            !
 !       R11         1.0875   calculate D2E/DX2 analytically            !
 !       R12         1.0836   calculate D2E/DX2 analytically            !
 !       R13         1.0829   calculate D2E/DX2 analytically            !
 !       A3         59.6283   calculate D2E/DX2 analytically            !
 !       A4        116.8889   calculate D2E/DX2 analytically            !
 !       A5        118.0351   calculate D2E/DX2 analytically            !
 !       A6        117.6824   calculate D2E/DX2 analytically            !
 !       A7        118.2275   calculate D2E/DX2 analytically            !
 !       A8        120.0947   calculate D2E/DX2 analytically            !
 !       A9        114.1835   calculate D2E/DX2 analytically            !
 !       A10       127.04     calculate D2E/DX2 analytically            !
 !       A11       114.5684   calculate D2E/DX2 analytically            !
 !       A12       122.0748   calculate D2E/DX2 analytically            !
 !       A13       121.0568   calculate D2E/DX2 analytically            !
 !       D4       -107.8167   calculate D2E/DX2 analytically            !
 !       D5        108.6755   calculate D2E/DX2 analytically            !
 !       D6       -108.6578   calculate D2E/DX2 analytically            !
 !       D7       -143.8107   calculate D2E/DX2 analytically            !
 !       D8        112.8954   calculate D2E/DX2 analytically            !
 !       D9        140.2009   calculate D2E/DX2 analytically            !
 !       D10       -83.836    calculate D2E/DX2 analytically            !
 !       D11       179.5828   calculate D2E/DX2 analytically            !
 !       D12        -2.0122   calculate D2E/DX2 analytically            !
 !       D13      -179.0936   calculate D2E/DX2 analytically            !
 ------------------------------------------------------------------------
 Trust Radius=1.00D-01 FncErr=1.00D-07 GrdErr=1.00D-07 EigMax=2.50D+02 EigMin=1.00D-04
 Number of steps in this run=      2 maximum allowed number of steps=      2.
 GradGradGradGradGradGradGradGradGradGradGradGradGradGradGradGradGradGrad

                          Input orientation:                          
 ---------------------------------------------------------------------
 Center     Atomic      Atomic             Coordinates (Angstroms)
 Number     Number       Type             X           Y           Z
 ---------------------------------------------------------------------
      1          6           0        0.000000    0.000000    0.000000
      2          6           0        0.000000    0.000000    1.516809
      3          6           0        1.296606    0.000000    0.759855
      4          1           0       -0.295293    0.918810   -0.489387
      5          1           0       -0.305670   -0.904339   -0.508321
      6          1           0        1.885138    0.907595    0.749548
      7          1           0        1.883073   -0.908651    0.770839
      8          6           0       -0.498418    1.180188    2.259290
      9          1           0       -0.287657   -0.946572    1.961083
     10          6           0        0.181842    2.281763    2.562315
     11          1           0       -1.537889    1.111972    2.571716
     12          1           0        1.226933    2.402437    2.302542
     13          1           0       -0.286787    3.098288    3.097343
 ---------------------------------------------------------------------
                    Distance matrix (angstroms):
                    1          2          3          4          5
     1  C    0.000000
     2  C    1.516809   0.000000
     3  C    1.502853   1.501388   0.000000
     4  H    1.082086   2.226260   2.222377   0.000000
     5  H    1.081505   2.238842   2.234589   1.823277   0.000000
     6  H    2.222453   2.228489   1.081760   2.507860   3.108854
     7  H    2.228409   2.219929   1.081532   3.110155   2.535127
     8  C    2.597240   1.480723   2.619783   2.768538   3.470169
     9  H    2.196495   1.084493   2.202008   3.079693   2.469830
    10  C    3.435836   2.516464   3.114162   3.376119   4.451709
    11  H    3.196139   2.171270   3.543118   3.309336   3.882074
    12  H    3.546656   2.809705   2.855949   3.509015   4.602672
    13  H    4.390350   3.489946   4.191703   4.197002   5.387225
                    6          7          8          9         10
     6  H    0.000000
     7  H    1.816372   0.000000
     8  C    2.834602   3.500034   0.000000
     9  H    3.102707   2.475922   2.157882   0.000000
    10  C    2.841774   4.035135   1.329679   3.317237   0.000000
    11  H    3.883191   4.362231   1.087549   2.484664   2.079897
    12  H    2.253792   3.706742   2.114853   3.691401   1.083633
    13  H    3.876666   5.116295   2.103861   4.201427   1.082858
                   11         12         13
    11  H    0.000000
    12  H    3.063004   0.000000
    13  H    2.405617   1.845878   0.000000
 Symmetry turned off by external request.
 Stoichiometry    C5H8
 Framework group  C1[X(C5H8)]
 Deg. of freedom    33
 Full point group                 C1      NOp   1
 Rotational constants (GHZ):          11.6106701           3.6676648           3.3281562
 Standard basis: def2TZVP (5D, 7F)
 The following finite field(s) will be applied:
 An electric field of              0.0014  0.0048 -0.0003
   203 basis functions,   319 primitive gaussians,   228 cartesian basis functions
    19 alpha electrons       19 beta electrons
       nuclear repulsion energy       165.1223070531 Hartrees.
 NAtoms=   13 NActive=   13 NUniq=   13 SFac= 1.00D+00 NAtFMM=   60 NAOKFM=F Big=F
 Integral buffers will be    131072 words long.
 Raffenetti 2 integral format.
 Two-electron integral symmetry is turned off.
 One-electron integrals computed using PRISM.
   1 Symmetry operations used in ECPInt.
 ECPInt:  NShTT=    3828 NPrTT=   11160 LenC2=    3810 LenP2D=    9474.
 LDataN:  DoStor=T MaxTD1= 6 Len=  172
 NBasis=   203 RedAO= T EigKep=  1.49D-04  NBF=   203
 NBsUse=   203 1.00D-06 EigRej= -1.00D+00 NBFU=   203
 The nuclear repulsion energy is now       165.3556759670 hartrees.
 Initial guess from the checkpoint file:  "checkpoint.chk"
 B after Tr=     0.000000    0.000000    0.000000
         Rot=    1.000000    0.000000    0.000000    0.000000 Ang=   0.00 deg.
 Requested convergence on RMS density matrix=1.00D-08 within 128 cycles.
 Requested convergence on MAX density matrix=1.00D-06.
 Requested convergence on             energy=1.00D-06.
[...]
   A13        2.11284   0.00005   0.00000   0.00008   0.00008   2.11292
    D4       -1.88176  -0.00002   0.00000  -0.00022  -0.00022  -1.88197
    D5        1.89674  -0.00001   0.00000   0.00012   0.00012   1.89686
    D6       -1.89644  -0.00004   0.00000  -0.00019  -0.00019  -1.89663
    D7       -2.50997  -0.00001   0.00000   0.00005   0.00005  -2.50992
    D8        1.97040  -0.00004   0.00000  -0.00019  -0.00019   1.97021
    D9        2.44697   0.00000   0.00000   0.00027   0.00027   2.44724
   D10       -1.46321   0.00001   0.00000   0.00157   0.00157  -1.46164
   D11        3.13431   0.00005   0.00000   0.00056   0.00056   3.13487
   D12       -0.03512  -0.00004   0.00000   0.00058   0.00058  -0.03454
   D13       -3.12577  -0.00006   0.00000  -0.00123  -0.00123  -3.12700
         Item               Value     Threshold  Converged?
 Maximum Force            0.000067     0.000450     YES
 RMS     Force            0.000032     0.000300     YES
 Maximum Displacement     0.001571     0.001800     YES
 RMS     Displacement     0.000411     0.001200     YES
 Predicted change in Energy=-1.150244D-07
 Optimization completed.
    -- Stationary point found.
                       ----------------------------
                       !   Optimized Parameters   !
                       ! (Angstroms and Degrees)  !
 ----------------------                            ----------------------
 !      Name          Value   Derivative information (Atomic Units)     !
 ------------------------------------------------------------------------
 !       R2          1.5168   -DE/DX =    0.0                           !
 !       R3          1.5029   -DE/DX =    0.0                           !
 !       R4          1.0821   -DE/DX =    0.0                           !
 !       R5          1.0815   -DE/DX =    0.0                           !
 !       R6          1.0818   -DE/DX =    0.0                           !
 !       R7          1.0815   -DE/DX =    0.0                           !
 !       R8          1.4807   -DE/DX =    0.0                           !
 !       R9          1.0845   -DE/DX =    0.0                           !
 !       R10         1.3297   -DE/DX =    0.0                           !
 !       R11         1.0875   -DE/DX =    0.0                           !
 !       R12         1.0836   -DE/DX =    0.0                           !
 !       R13         1.0829   -DE/DX =    0.0                           !
 !       A3         59.6283   -DE/DX =    0.0                           !
 !       A4        116.8889   -DE/DX =    0.0                           !
 !       A5        118.0351   -DE/DX =    0.0                           !
 !       A6        117.6824   -DE/DX =    0.0                           !
 !       A7        118.2275   -DE/DX =    0.0                           !
 !       A8        120.0947   -DE/DX =    0.0                           !
 !       A9        114.1835   -DE/DX =   -0.0001                        !
 !       A10       127.04     -DE/DX =    0.0                           !
 !       A11       114.5684   -DE/DX =    0.0                           !
 !       A12       122.0748   -DE/DX =    0.0001                        !
 !       A13       121.0568   -DE/DX =    0.0                           !
 !       D4       -107.8167   -DE/DX =    0.0                           !
 !       D5        108.6755   -DE/DX =    0.0                           !
 !       D6       -108.6578   -DE/DX =    0.0                           !
 !       D7       -143.8107   -DE/DX =    0.0                           !
 !       D8        112.8954   -DE/DX =    0.0                           !
 !       D9        140.2009   -DE/DX =    0.0                           !
 !       D10       -83.836    -DE/DX =    0.0                           !
 !       D11       179.5828   -DE/DX =    0.0001                        !
 !       D12        -2.0122   -DE/DX =    0.0                           !
 !       D13      -179.0936   -DE/DX =   -0.0001                        !
 ------------------------------------------------------------------------
 GradGradGradGradGradGradGradGradGradGradGradGradGradGradGradGradGradGrad


 ----------------------------------------------------------------------

 Electric dipole moment (input orientation):
 (Debye = 10**-18 statcoulomb cm , SI units = C m)
                  (au)            (Debye)         (10**-30 SI)
   Tot        0.494575D+00      0.125708D+01      0.419318D+01
   x         -0.118511D+00     -0.301225D+00     -0.100478D+01
   y         -0.463554D+00     -0.117824D+01     -0.393017D+01
   z         -0.125208D+00     -0.318246D+00     -0.106155D+01

 Dipole polarizability, Alpha (input orientation).
 (esu units = cm**3 , SI units = C**2 m**2 J**-1)
 Alpha(0;0):
               (au)            (10**-24 esu)      (10**-40 SI)
   iso        0.583232D+02      0.864260D+01      0.961619D+01
   aniso      0.217189D+02      0.321841D+01      0.358096D+01
   xx         0.551567D+02      0.817338D+01      0.909411D+01
   yx         0.219632D+01      0.325461D+00      0.362124D+00
   yy         0.633610D+02      0.938913D+01      0.104468D+02
   zx        -0.116942D+01     -0.173290D+00     -0.192811D+00
   zy         0.114713D+02      0.169987D+01      0.189136D+01
   zz         0.564518D+02      0.836529D+01      0.930764D+01

 ----------------------------------------------------------------------

 Dipole orientation:
     6          0.00000000          0.00000000         -0.00000000
     6         -0.68684144          2.68657086         -0.72565302
     6          1.99388556          1.78498544         -0.95064923
     1         -0.62203131         -1.48593157         -1.25955494
     1         -0.01470901         -0.49291580          1.98336160
     1          2.75237636          1.45326857         -2.81974788
     1          3.35413482          2.51644636          0.38793314
     6         -2.32147283          3.16605085         -2.94551475
     1         -1.08612090          3.91085083          0.86862807
     6         -1.60516316          3.31077465         -5.34962852
     1         -4.31415400          3.40591542         -2.50346512
     1          0.35604452          3.13643498         -5.91232687
     1         -2.96897665          3.63837104         -6.83961398

 Electric dipole moment (dipole orientation):
 (Debye = 10**-18 statcoulomb cm , SI units = C m)
                  (au)            (Debye)         (10**-30 SI)
   Tot        0.494575D+00      0.125708D+01      0.419318D+01
   x          0.000000D+00      0.000000D+00      0.000000D+00
   y          0.000000D+00      0.000000D+00      0.000000D+00
   z          0.494575D+00      0.125708D+01      0.419318D+01

 Dipole polarizability, Alpha (dipole orientation).
 (esu units = cm**3 , SI units = C**2 m**2 J**-1)
 Alpha(0;0):
               (au)            (10**-24 esu)      (10**-40 SI)
   iso        0.583232D+02      0.864260D+01      0.961619D+01
   aniso      0.217189D+02      0.321841D+01      0.358096D+01
   xx         0.562634D+02      0.833738D+01      0.927659D+01
   yx        -0.264910D+01     -0.392557D+00     -0.436778D+00
   yy         0.499703D+02      0.740484D+01      0.823900D+01
   zx         0.289899D+01      0.429585D+00      0.477978D+00
   zy        -0.711326D+01     -0.105408D+01     -0.117282D+01
   zz         0.687357D+02      0.101856D+02      0.113330D+02

 ----------------------------------------------------------------------
 1\1\GINC-BHC0106\Freq\RB3LYP\def2TZVP\C5H8\DHANAWAY\10-Jun-2022\1\\#N 
 Geom=AllCheck Guess=TCheck SCRF=Check GenChk RB3LYP/def2TZVP Freq\\int
 _zmat_initalOpt\\0,1\C\C,1,R2\C,1,R3,2,A3\H,1,R4,2,A4,3,D4,0\H,1,R5,2,
 A5,3,D5,0\H,3,R6,1,A6,2,D6,0\H,3,R7,1,A7,6,D7,0\C,2,R8,1,A8,3,D8,0\H,2
 ,R9,1,A9,8,D9,0\C,8,R10,2,A10,1,D10,0\H,8,R11,2,A11,10,D11,0\H,10,R12,
 8,A12,2,D12,0\H,10,R13,8,A13,12,D13,0\\R2=1.51680933\R3=1.50285271\R4=
 1.08208578\R5=1.08150482\R6=1.08175965\R7=1.08153206\R8=1.48072322\R9=
 1.08449285\R10=1.32967898\R11=1.08754879\R12=1.08363288\R13=1.08285786
 \A3=59.62825889\A4=116.8889269\A5=118.03510788\A6=117.6823654\A7=118.2
 2751654\A8=120.09472557\A9=114.18347676\A10=127.03996496\A11=114.56840
 507\A12=122.07484306\A13=121.05676235\D4=-107.81668893\D5=108.6754567\
 D6=-108.65778791\D7=-143.81072284\D8=112.89536029\D9=140.2009469\D10=-
 83.83597715\D11=179.58275834\D12=-2.01219791\D13=-179.09362855\\Versio
 n=ES64L-G16RevA.03\HF=-195.368846\RMSD=2.130e-09\RMSF=7.345e-05\ZeroPo
 int=0.1143457\Thermal=0.1197377\Dipole=-0.1185109,-0.4635538,-0.125207
 7\DipoleDeriv=0.0454838,-0.0551809,-0.1463906,0.0121593,0.0475262,-0.0
 435007,-0.0832721,0.0424485,-0.0343631,0.0671028,-0.0027138,0.1349804,
 0.0092775,0.0230496,-0.0765025,0.1285554,-0.2002823,-0.168256,-0.16134
 49,0.0386793,0.0548819,-0.0006554,0.0593443,-0.0493659,0.0115497,0.020
 1857,0.0939684,0.0396782,0.0195875,-0.0608599,0.0463056,-0.0564868,0.0
 841728,-0.0454521,0.0204602,0.0006539,0.0595813,0.0065948,-0.0318215,-
 0.0387261,-0.0274202,-0.0720659,-0.0458121,-0.0645937,-0.0231827,-0.03
 93362,-0.0338403,-0.0038296,-0.102575,-0.0601093,0.0090273,-0.0219279,
 -0.0031532,0.0814425,-0.0268477,0.0571097,0.0126794,0.08168,-0.0205016
 ,0.0042317,-0.0045725,-0.0131871,0.0763141,0.118032,0.0131303,-0.11051
 49,-0.0083945,0.3132526,0.3578697,-0.0701172,0.2752465,0.0001795,0.047
 9304,0.0323538,0.0934319,-0.0243054,-0.0608782,0.0152204,0.048066,0.01
 74734,0.0054866,0.0212632,-0.0872487,-0.1466327,-0.0124725,-0.27816,-0
 .0246828,-0.1117596,0.0993766,-0.2854999,-0.0978891,-0.0079369,0.08457
 68,0.0064734,0.0466939,-0.0549712,0.0720409,-0.0603927,0.0646123,-0.09
 61724,-0.0478242,0.0490357,0.0022505,0.0628035,-0.0343368,0.0774432,-0
 .0188966,0.1104026,0.0225186,0.0672897,0.070463,0.0289826,-0.049114,-0
 .1150961,0.0452583,-0.1146853,0.0782417\Polar=55.1566938,2.1963213,63.
 3610055,-1.1694203,11.4713158,56.451756\PG=C01 [X(C5H8)]\NImag=0\\0.31
 652502,0.00132870,0.66276645,0.17613367,0.00451785,0.49041127,-0.01175
 874,0.00151256,0.02485853,0.35860153,-0.00080998,-0.06544849,0.0076625
 3,0.02051606,0.60604552,-0.03034711,0.00009920,-0.18755877,-0.16479728
 ,-0.02761378,0.46679594,-0.16462281,-0.00133907,-0.11586142,-0.1632322
 5,-0.00206363,0.11177671,0.61471708,0.00041375,-0.07483402,0.00037128,
 -0.00342014,-0.07877249,0.00001113,-0.00145488,0.66118756,-0.05988113,
 -0.00069839,-0.06454263,0.05641517,0.00079655,-0.06532656,0.00056896,-
 0.00288492,0.21836108,-0.05727002,0.06313824,-0.04025209,-0.00014995,-
 0.01275108,0.00545597,-0.00796064,0.02742689,-0.01323739,0.06216420,0.
 06532224,-0.26325068,0.10778466,-0.00080237,0.00069436,-0.00149942,-0.
 00158219,0.00241161,-0.00194122,-0.06946636,0.27249808,-0.03927571,0.1
 0375865,-0.09829410,-0.00828081,0.02207407,-0.01376812,-0.00035156,-0.
 00033276,-0.00449395,0.04359827,-0.11534854,0.10791392,-0.06057071,-0.
 06525641,-0.04213383,0.00003188,0.01319784,0.00416698,-0.00741156,-0.0
 2677096,-0.01236131,0.00257051,0.00689180,0.00536849,0.06416502,-0.067
 51326,-0.26037590,-0.11186286,0.00086357,0.00244912,0.00355131,0.00162
 865,0.00299727,0.00227505,-0.00719317,-0.01612565,-0.01192561,0.071463
 94,0.26802907,-0.04218245,-0.10840675,-0.10436406,-0.00792295,-0.02138
 398,-0.01265466,-0.00075951,0.00063549,-0.00455771,0.00544369,0.012024
 50,0.00852617,0.04637721,0.11823657,0.11293575,-0.01136368,-0.01335014
 ,0.00158263,-0.01123571,-0.01357139,-0.00156427,-0.12700987,-0.1240029
 3,0.00245176,0.00172851,-0.00020374,-0.00101675,-0.00229205,0.00041485
 ,0.00124145,0.13815685,0.00241286,0.00200245,0.00013866,0.00066226,0.0
 0221648,0.00148941,-0.12770903,-0.25684515,0.00269082,-0.00008507,0.00
 110730,0.00044047,0.00043472,0.00051383,0.00013691,0.13716169,0.268514
 30,-0.01167292,-0.02411385,-0.00096337,0.01004081,0.02486274,-0.000899
 22,0.00271796,0.00287824,-0.03423044,0.00316694,0.00024338,0.00047956,
 -0.00510620,0.00038904,0.00013773,-0.00154621,-0.00233814,0.03619899,-
 0.01109146,0.01325442,0.00096175,-0.01147025,0.01353108,-0.00108984,-0
 .12739332,0.12593412,-0.00165150,-0.00229118,-0.00048076,0.00116915,0.
 00176434,0.00030586,-0.00099399,0.01167035,-0.01444958,0.00020522,0.13
 901208,-0.00240829,0.00281655,-0.00019103,-0.00305917,0.00253281,0.000
 90963,0.12977117,-0.26075672,0.00229408,-0.00051279,0.00055211,-0.0001
 3224,0.00008256,0.00112274,-0.00044727,0.01351928,-0.01692561,0.000158
 09,-0.13727856,0.26954430,-0.01094252,0.02422274,-0.00125445,0.0103890
 5,-0.02406481,-0.00005883,-0.00146139,0.00239419,-0.03477027,-0.005217
 44,-0.00035192,0.00001339,0.00300434,-0.00035671,0.00061721,-0.0001669
 9,0.00019106,-0.00085652,0.00172491,-0.00270350,0.03657627,-0.00168192
 ,-0.01469375,-0.00420278,-0.10086000,0.03896156,0.03336354,-0.01139876
 ,0.02785161,0.01776241,0.00032871,0.00025677,0.00160040,0.00190224,0.0
 0035628,-0.00397169,0.00209956,0.00023154,-0.00301145,-0.00209231,-0.0
 0049839,0.00479896,0.63501286,0.00451539,-0.00170363,-0.01249390,0.036
 35462,-0.18066396,-0.04857588,0.00161916,0.00558397,-0.00280656,-0.000
 56040,0.00092143,0.00287037,-0.00061743,-0.00045210,0.00141547,-0.0018
 9968,-0.00097477,-0.00032312,-0.00208901,-0.00039882,0.00131855,0.1783
 3092,0.66114826,0.01190226,-0.02388808,-0.01978837,0.03448655,-0.05886
 970,-0.10316643,0.00311434,0.00150761,-0.00837126,-0.00180324,-0.00114
 449,0.00315984,0.00238919,-0.00033447,-0.00224907,-0.00001764,-0.00128
 901,0.00092960,-0.00187924,-0.00051126,0.00036335,-0.08111196,0.182435
 90,0.27086607,0.00195171,0.01272432,-0.00564101,-0.06206783,-0.0608485
 1,0.03831668,-0.00886985,-0.02711865,0.01131889,0.00091186,0.00022768,
 -0.00258715,-0.00002850,-0.00041284,0.00201649,-0.00249150,0.00007386,
 0.00511025,0.00133959,-0.00002635,-0.00259199,0.00403201,0.00735513,-0
 .00675701,0.06417621,-0.00011461,0.00118485,-0.00099657,-0.06380370,-0
 .26523808,0.10011665,0.00166930,0.00254520,-0.00131002,0.00018290,0.00
 051132,-0.00038825,-0.00029742,0.00119882,-0.00044252,0.00042450,0.000
 48616,-0.00069326,0.00031906,0.00110409,0.00033373,-0.00773670,-0.0222
 0062,0.00829388,0.06645568,0.28131179,0.00875755,0.02460862,-0.0153306
 0,0.03477211,0.09694553,-0.08413658,0.00085431,-0.00034027,-0.00451113
 ,0.00301160,-0.00020980,-0.00345667,-0.00205380,0.00011489,0.00231873,
 -0.00127862,-0.00039775,-0.00011644,0.00103368,0.00043275,0.00038504,-
 0.00547418,-0.01840801,0.00695679,-0.04071374,-0.10219619,0.09943208,0
 .00040615,0.00211176,0.00324277,0.01206681,0.00551257,-0.00053937,0.00
 170293,-0.00037962,-0.00151747,0.00003713,-0.00013342,-0.00026666,-0.0
 0035760,0.00011686,0.00057483,-0.00031003,0.00053863,0.00058029,0.0001
 6848,0.00008535,0.00010857,-0.22454775,-0.18694266,-0.03259266,0.00002
 271,0.00334272,0.00165032,0.64544809,-0.00296822,-0.00283882,0.0050658
 7,-0.00909158,-0.02747434,-0.01920146,-0.00110483,0.00028739,0.0025471
 7,0.00009981,0.00051222,-0.00093259,0.00049819,0.00064970,-0.00141988,
 0.00073148,-0.00012649,-0.00009374,0.00025447,0.00019985,-0.00004867,-
 0.19424749,-0.39036557,-0.09762248,0.00204425,-0.00138525,-0.00087327,
 0.14262677,0.68077342,-0.00068445,-0.00176921,0.00004531,-0.00761939,-
 0.01782884,0.00038961,-0.00021454,-0.00015021,0.00065141,-0.00027698,0
 .00028503,0.00069077,0.00049279,-0.00015800,-0.00061817,0.00002872,-0.
 00045665,-0.00039109,-0.00008756,-0.00008112,0.00000587,-0.03587532,-0
 .10140719,-0.08766702,0.00130193,-0.00149003,-0.00123003,-0.10143036,0
 .23040322,0.24240628,-0.00036547,0.00019760,0.00095597,-0.00843462,-0.
 00090265,0.00320014,0.00124474,0.00152359,-0.00018996,0.00004639,0.000
 02035,0.00015546,-0.00005529,-0.00001597,0.00014362,0.00011561,-0.0001
 5398,-0.00030589,-0.00000136,-0.00003448,0.00049076,-0.29716584,-0.018
 30617,0.07661400,0.00053084,0.00025922,-0.00006104,-0.01482997,-0.0015
 6849,0.00630483,0.31733575,0.00039386,0.00053033,-0.00017674,0.0242112
 0,0.00276555,-0.00846990,0.00045238,-0.00362263,-0.00169970,-0.0002621
 1,0.00013252,-0.00017119,-0.00002283,-0.00004041,0.00000100,-0.0000525
 9,0.00015969,0.00025631,0.00041904,0.00000223,-0.00093590,-0.01506410,
 -0.05513355,-0.00095871,-0.00053246,0.00087429,0.00067695,-0.02874031,
 0.00092972,0.00617911,0.02178857,0.05565050,-0.00184934,0.00090281,0.0
 0130166,0.01797600,-0.00018133,-0.00380554,0.00057635,-0.00353547,0.00
 210756,0.00007562,0.00004593,-0.00057663,0.00003280,0.00000318,-0.0001
 6355,-0.00001276,0.00007842,0.00024852,0.00055405,0.00012801,-0.001202
 46,0.07783831,0.00168419,-0.06748449,-0.00046139,-0.00055605,0.0004136
 5,-0.00707911,-0.00390609,0.00733791,-0.08696432,0.00722952,0.05872486
 ,-0.00005766,-0.00028417,-0.00017956,-0.00048432,0.00249072,-0.0007171
 8,0.00008125,0.00021262,0.00021868,-0.00013611,-0.00010336,-0.00003272
 ,0.00020486,-0.00000186,-0.00009229,0.00054995,0.00077017,0.00026484,0
 .00019982,0.00016178,-0.00013815,-0.01508412,-0.00226600,0.00540998,0.
 00003966,0.00008117,0.00002234,-0.30950569,-0.03009122,0.06919302,0.00
 094134,-0.00373919,0.00149316,0.33160055,-0.00035490,0.00071652,0.0007
 4072,0.00028524,-0.00000088,0.00301241,0.00067878,-0.00058197,-0.00003
 929,0.00007458,0.00004345,0.00001156,0.00008541,-0.00003713,0.00016494
 ,0.00061567,-0.00040476,-0.00122627,0.00021600,0.00023542,0.00005674,-
 0.02773568,0.00219030,0.00666120,0.00017011,-0.00017154,-0.00017412,-0
 .02598251,-0.05568690,-0.00266797,-0.00375222,-0.00183169,-0.00514374,
 0.03537856,0.05110108,0.00005609,-0.00118929,-0.00066267,-0.00159365,0
 .00245523,-0.00610645,-0.00132651,-0.00023294,-0.00018384,-0.00015105,
 -0.00007786,0.00003834,0.00023888,0.00005548,-0.00045655,0.00052416,-0
 .00057415,-0.00051216,0.00005454,0.00011718,0.00021656,-0.00568661,-0.
 00020431,0.00778069,0.00014508,0.00068285,0.00055069,0.06994278,-0.001
 71229,-0.05581372,0.00216158,-0.00503104,0.00862284,-0.07721525,0.0034
 3597,0.04791245,-0.00010041,0.00065593,0.00053537,-0.00100654,-0.00326
 259,0.00277505,0.00015306,-0.00021538,0.00010289,0.00002058,0.00005336
 ,-0.00008042,0.00007687,-0.00001291,0.00012558,0.00038202,0.00011192,-
 0.00044363,0.00018523,0.00019790,0.00000189,0.00945531,-0.01549386,-0.
 00975458,0.00045309,-0.00078212,-0.00052053,-0.11030128,0.09281683,0.0
 6886732,0.00063787,0.00114854,-0.00217937,-0.00834953,0.02032096,0.012
 84996,0.10839372,-0.00021754,-0.00156559,-0.00056049,-0.00422854,0.000
 89440,-0.00382930,-0.00056581,0.00039997,0.00077642,-0.00009145,-0.000
 00806,0.00007607,0.00031060,0.00007063,-0.00051447,0.00021298,0.000276
 57,0.00000059,0.00006386,-0.00002895,-0.00005550,0.01398743,-0.0179509
 5,-0.01428041,-0.00011222,-0.00022105,-0.00017935,0.08784386,-0.205474
 94,-0.11085813,0.00094462,-0.00041655,0.00325062,-0.00260921,0.0044280
 8,0.00227518,-0.09553859,0.21959643,-0.00001394,0.00195570,0.00100078,
 0.00127585,-0.00485421,0.01029562,0.00036631,-0.00032137,-0.00013226,0
 .00018610,0.00018974,-0.00023254,-0.00041553,0.00001211,0.00052817,-0.
 00022548,-0.00011005,-0.00002517,-0.00000116,0.00002667,-0.00003517,0.
 00397037,-0.00550552,-0.00132970,0.00054296,-0.00135422,-0.00127553,0.
 06732606,-0.11220578,-0.10580711,-0.00250516,0.00310030,-0.00552434,0.
 00177314,-0.00483215,-0.00138618,-0.07227953,0.12389878,0.10392343\\0.
 00003526,0.00026544,0.00004540,-0.00005185,-0.00032201,-0.00006852,0.0
 0007073,0.00002843,0.00002082,0.00001151,-0.00000129,-0.00001296,-0.00
 000423,0.00000128,-0.00000340,-0.00002515,0.00000445,0.00000497,-0.000
 01600,-0.00000111,-0.00001567,0.00000924,-0.00001886,0.00003186,-0.000
 00049,0.00000534,0.00003354,-0.00000673,0.00010001,-0.00003642,-0.0000
 1697,0.00000873,-0.00002135,-0.00000145,-0.00003432,-0.00000132,-0.000
 00387,-0.00003612,0.00002304\\\@


 This summer one third of the nation will be ill-housed
 ill-nourished and ill-clad. Only they call it a vacation.
 -- Jonas Salk
 Job cpu time:       0 days  0 hours 26 minutes  7.8 seconds.
 Elapsed time:       0 days  0 hours  2 minutes 11.1 seconds.
 File lengths (MBytes):  RWF=     52 Int=      0 D2E=      0 Chk=     32 Scr=      1
 Normal termination of Gaussian 16 at Fri Jun 10 03:20:56 2022.
