 Entering Gaussian System, Link 0=g16
 Input=ts_zmat_field_N100.gjf
 Output=ts_zmat_field_N100.out
 Initial command:
 /software/gaussian/g16-a03/l1.exe "/local_scratch/11172628/Gau-16984.inp" -scrdir="/local_scratch/11172628/"
 Entering Link 1 = /software/gaussian/g16-a03/l1.exe PID=     16985.
  
 Copyright (c) 1988,1990,1992,1993,1995,1998,2003,2009,2016,
            Gaussian, Inc.  All Rights Reserved.
  
 This is part of the Gaussian(R) 16 program.  It is based on
 the Gaussian(R) 09 system (copyright 2009, Gaussian, Inc.),
 the Gaussian(R) 03 system (copyright 2003, Gaussian, Inc.),
 the Gaussian(R) 98 system (copyright 1998, Gaussian, Inc.),
 the Gaussian(R) 94 system (copyright 1995, Gaussian, Inc.),
 the Gaussian 92(TM) system (copyright 1992, Gaussian, Inc.),
 the Gaussian 90(TM) system (copyright 1990, Gaussian, Inc.),
 the Gaussian 88(TM) system (copyright 1988, Gaussian, Inc.),
 the Gaussian 86(TM) system (copyright 1986, Carnegie Mellon
 University), and the Gaussian 82(TM) system (copyright 1983,
 Carnegie Mellon University). Gaussian is a federally registered
 trademark of Gaussian, Inc.
  
 This software contains proprietary and confidential information,
 including trade secrets, belonging to Gaussian, Inc.
  
 This software is provided under written license and may be
 used, copied, transmitted, or stored only in accord with that
 written license.
  
 The following legend is applicable only to US Government
 contracts under FAR:
  
                    RESTRICTED RIGHTS LEGEND
  
 Use, reproduction and disclosure by the US Government is
 subject to restrictions as set forth in subparagraphs (a)
 and (c) of the Commercial Computer Software - Restricted
 Rights clause in FAR 52.227-19.
  
 Gaussian, Inc.
 340 Quinnipiac St., Bldg. 40, Wallingford CT 06492
  
  
 ---------------------------------------------------------------
 Warning -- This program may not be used in any manner that
 competes with the business of Gaussian, Inc. or will provide
 assistance to any competitor of Gaussian, Inc.  The licensee
 of this program is prohibited from giving any competitor of
 Gaussian, Inc. access to this program.  By using this program,
 the user acknowledges that Gaussian, Inc. is engaged in the
 business of creating and licensing software in the field of
 computational chemistry and represents and warrants to the
 licensee that it is not a competitor of Gaussian, Inc. and that
 it will not use this program in any manner prohibited above.
 ---------------------------------------------------------------
  

 Cite this work as:
 Gaussian 16, Revision A.03,
 M. J. Frisch, G. W. Trucks, H. B. Schlegel, G. E. Scuseria, 
 M. A. Robb, J. R. Cheeseman, G. Scalmani, V. Barone, 
 G. A. Petersson, H. Nakatsuji, X. Li, M. Caricato, A. V. Marenich, 
 J. Bloino, B. G. Janesko, R. Gomperts, B. Mennucci, H. P. Hratchian, 
 J. V. Ortiz, A. F. Izmaylov, J. L. Sonnenberg, D. Williams-Young, 
 F. Ding, F. Lipparini, F. Egidi, J. Goings, B. Peng, A. Petrone, 
 T. Henderson, D. Ranasinghe, V. G. Zakrzewski, J. Gao, N. Rega, 
 G. Zheng, W. Liang, M. Hada, M. Ehara, K. Toyota, R. Fukuda, 
 J. Hasegawa, M. Ishida, T. Nakajima, Y. Honda, O. Kitao, H. Nakai, 
 T. Vreven, K. Throssell, J. A. Montgomery, Jr., J. E. Peralta, 
 F. Ogliaro, M. J. Bearpark, J. J. Heyd, E. N. Brothers, K. N. Kudin, 
 V. N. Staroverov, T. A. Keith, R. Kobayashi, J. Normand, 
 K. Raghavachari, A. P. Rendell, J. C. Burant, S. S. Iyengar, 
 J. Tomasi, M. Cossi, J. M. Millam, M. Klene, C. Adamo, R. Cammi, 
 J. W. Ochterski, R. L. Martin, K. Morokuma, O. Farkas, 
 J. B. Foresman, and D. J. Fox, Gaussian, Inc., Wallingford CT, 2016.
 
 ******************************************
 Gaussian 16:  ES64L-G16RevA.03 25-Dec-2016
                10-Jun-2022 
 ******************************************
 %nprocshared=12
 Will use up to   12 processors via shared memory.
 %chk=checkpoint.chk
 %mem=12GB
 ----------------------------------------------------------------------
 # Opt=(TS, CalcFC, noeigentest, Z-matrix, MaxStep=10) geom=allcheckpoi
 nt guess=read Field=read NoSymm B3LYP/Def2TZVP freq=noraman pop=none
 ----------------------------------------------------------------------
 1/5=1,8=10,10=4,11=1,18=40,26=3,29=7,38=1/1,3;
 2/12=2,15=1,29=3,40=1/2;
 3/5=44,7=101,11=2,14=-6,25=1,30=1,71=2,74=-5,116=-2,140=1/1,2,3;
 4/5=1/1;
 5/5=2,38=6/2;
 8/6=4,10=90,11=11/1;
 11/6=1,8=1,9=11,15=111,16=1,31=1/1,2,10;
 10/6=1,13=1,31=1/2;
 7/10=1,18=20,25=1,30=1/1,2,3,16;
 1/5=1,8=10,10=4,11=1,18=40,26=3/3(2);
 2/15=1,29=3/2;
 99//99;
 2/15=1,29=3/2;
 3/5=44,7=101,11=2,14=-2,25=1,30=1,71=1,74=-5/1,2,3;
 4/5=5,16=3,69=1/1;
 5/5=2,38=5/2;
 7/30=1/1,2,3,16;
 1/5=1,8=10,11=1,18=40,26=3/3(-5);
 2/15=1,29=3/2;
 99/9=1/99;
 Structure from the checkpoint file:  "checkpoint.chk"
 -----------------
 ts_zmat_initalOpt
 -----------------
 Charge =  0 Multiplicity = 1
 Z-Matrix found in chk file.
 C
 C,1,R2
 S,1,R3,2,A3
 C,1,R4,2,A4,3,D4,0
 O,3,R5,1,A5,2,D5,0
 H,2,R6,1,A6,3,D6,0
 C,2,R7,1,A7,6,D7,0
 C,4,R8,1,A8,2,D8,0
 H,4,R9,1,A9,8,D9,0
 H,7,R10,2,A10,1,D10,0
 C,7,R11,2,A11,10,D11,0
 H,8,R12,4,A12,1,D12,0
 H,11,R13,7,A13,2,D13,0
 C,1,R14,2,A14,3,D14,0
 C,14,R15,1,A15,2,D15,0
 H,14,R16,1,A16,15,D16,0
 H,14,R17,1,A17,15,D17,0
 C,15,R18,14,A18,1,D18,0
 H,15,R19,14,A19,18,D19,0
 H,18,R20,15,A20,14,D20,0
 H,18,R21,15,A21,20,D21,0
      Variables:
 R2=1.39465183
 R3=1.78219773
 R4=1.3976966
 R5=1.52482933
 R6=1.08207757
 R7=1.38963816
 R8=1.38760973
 R9=1.08428166
 R10=1.08375795
 R11=1.39194856
 R12=1.08426244
 R13=1.08393986
 R14=3.94814383
 R15=1.38147468
 R16=1.08035321
 R17=1.08053708
 R18=1.37673468
 R19=1.08396643
 R20=1.08202607
 R21=1.08259275
 A3=121.08454871
 A4=119.87205073
 A5=105.92975727
 A6=118.83713161
 A7=119.76479315
 A8=119.95832605
 A9=119.79279319
 A10=119.35187129
 A11=120.53682409
 A12=119.50281935
 A13=120.21645631
 A14=82.74777556
 A15=83.60105509
 A16=134.89477153
 A17=64.55290894
 A18=119.53261454
 A19=118.70355679
 A20=121.26380973
 A21=120.63638473
 D4=179.06335106
 D5=1.71607096
 D6=-0.63723691
 D7=-178.66271925
 D8=0.0909761
 D9=180.25903889
 D10=179.71742831
 D11=-179.58010543
 D12=-179.76245015
 D13=179.6790794
 D14=-29.32370517
 D15=-154.90841042
 D16=-128.80745901
 D17=128.33751963
 D18=28.68674615
 D19=-161.83082844
 D20=-169.80872566
 D21=-164.61276557
 Recover connectivity data from disk.

 GradGradGradGradGradGradGradGradGradGradGradGradGradGradGradGradGradGrad
 Berny optimization.
 Initialization pass.
                       ----------------------------
                       !    Initial Parameters    !
                       ! (Angstroms and Degrees)  !
 ----------------------                            ----------------------
 !      Name          Value   Derivative information (Atomic Units)     !
 ------------------------------------------------------------------------
 !       R2          1.3947   calculate D2E/DX2 analytically            !
 !       R3          1.7822   calculate D2E/DX2 analytically            !
 !       R4          1.3977   calculate D2E/DX2 analytically            !
 !       R5          1.5248   calculate D2E/DX2 analytically            !
 !       R6          1.0821   calculate D2E/DX2 analytically            !
 !       R7          1.3896   calculate D2E/DX2 analytically            !
 !       R8          1.3876   calculate D2E/DX2 analytically            !
 !       R9          1.0843   calculate D2E/DX2 analytically            !
 !       R10         1.0838   calculate D2E/DX2 analytically            !
 !       R11         1.3919   calculate D2E/DX2 analytically            !
 !       R12         1.0843   calculate D2E/DX2 analytically            !
 !       R13         1.0839   calculate D2E/DX2 analytically            !
 !       R14         3.9481   calculate D2E/DX2 analytically            !
 !       R15         1.3815   calculate D2E/DX2 analytically            !
 !       R16         1.0804   calculate D2E/DX2 analytically            !
 !       R17         1.0805   calculate D2E/DX2 analytically            !
 !       R18         1.3767   calculate D2E/DX2 analytically            !
 !       R19         1.084    calculate D2E/DX2 analytically            !
 !       R20         1.082    calculate D2E/DX2 analytically            !
 !       R21         1.0826   calculate D2E/DX2 analytically            !
 !       A3        121.0845   calculate D2E/DX2 analytically            !
 !       A4        119.8721   calculate D2E/DX2 analytically            !
 !       A5        105.9298   calculate D2E/DX2 analytically            !
 !       A6        118.8371   calculate D2E/DX2 analytically            !
 !       A7        119.7648   calculate D2E/DX2 analytically            !
 !       A8        119.9583   calculate D2E/DX2 analytically            !
 !       A9        119.7928   calculate D2E/DX2 analytically            !
 !       A10       119.3519   calculate D2E/DX2 analytically            !
 !       A11       120.5368   calculate D2E/DX2 analytically            !
 !       A12       119.5028   calculate D2E/DX2 analytically            !
 !       A13       120.2165   calculate D2E/DX2 analytically            !
 !       A14        82.7478   calculate D2E/DX2 analytically            !
 !       A15        83.6011   calculate D2E/DX2 analytically            !
 !       A16       134.8948   calculate D2E/DX2 analytically            !
 !       A17        64.5529   calculate D2E/DX2 analytically            !
 !       A18       119.5326   calculate D2E/DX2 analytically            !
 !       A19       118.7036   calculate D2E/DX2 analytically            !
 !       A20       121.2638   calculate D2E/DX2 analytically            !
 !       A21       120.6364   calculate D2E/DX2 analytically            !
 !       D4        179.0634   calculate D2E/DX2 analytically            !
 !       D5          1.7161   calculate D2E/DX2 analytically            !
 !       D6         -0.6372   calculate D2E/DX2 analytically            !
 !       D7       -178.6627   calculate D2E/DX2 analytically            !
 !       D8          0.091    calculate D2E/DX2 analytically            !
 !       D9        180.259    calculate D2E/DX2 analytically            !
 !       D10       179.7174   calculate D2E/DX2 analytically            !
 !       D11      -179.5801   calculate D2E/DX2 analytically            !
 !       D12      -179.7625   calculate D2E/DX2 analytically            !
 !       D13       179.6791   calculate D2E/DX2 analytically            !
 !       D14       -29.3237   calculate D2E/DX2 analytically            !
 !       D15      -154.9084   calculate D2E/DX2 analytically            !
 !       D16      -128.8075   calculate D2E/DX2 analytically            !
 !       D17       128.3375   calculate D2E/DX2 analytically            !
 !       D18        28.6867   calculate D2E/DX2 analytically            !
 !       D19      -161.8308   calculate D2E/DX2 analytically            !
 !       D20      -169.8087   calculate D2E/DX2 analytically            !
 !       D21      -164.6128   calculate D2E/DX2 analytically            !
 ------------------------------------------------------------------------
 Trust Radius=1.00D-01 FncErr=1.00D-07 GrdErr=1.00D-06 EigMax=2.50D+02 EigMin=1.00D-04
 Number of steps in this run=     67 maximum allowed number of steps=    114.
 Search for a saddle point of order  1.
 GradGradGradGradGradGradGradGradGradGradGradGradGradGradGradGradGradGrad

 ---------------------------------------------------------------------------------------------------
                            Z-MATRIX (ANGSTROMS AND DEGREES)
   CD    Cent   Atom    N1       Length/X        N2       Alpha/Y        N3        Beta/Z          J
 ---------------------------------------------------------------------------------------------------
      1      1  C 
      2      2  C        1   1.394652(     1)
      3      3  S        1   1.782198(     2)      2  121.085(    21)
      4      4  C        1   1.397697(     3)      2  119.872(    22)      3  179.063(    40)      0
      5      5  O        3   1.524829(     4)      1  105.930(    23)      2    1.716(    41)      0
      6      6  H        2   1.082078(     5)      1  118.837(    24)      3   -0.637(    42)      0
      7      7  C        2   1.389638(     6)      1  119.765(    25)      6 -178.663(    43)      0
      8      8  C        4   1.387610(     7)      1  119.958(    26)      2    0.091(    44)      0
      9      9  H        4   1.084282(     8)      1  119.793(    27)      8  180.259(    45)      0
     10     10  H        7   1.083758(     9)      2  119.352(    28)      1  179.717(    46)      0
     11     11  C        7   1.391949(    10)      2  120.537(    29)     10 -179.580(    47)      0
     12     12  H        8   1.084262(    11)      4  119.503(    30)      1 -179.762(    48)      0
     13     13  H       11   1.083940(    12)      7  120.216(    31)      2  179.679(    49)      0
     14     14  C        1   3.948144(    13)      2   82.748(    32)      3  -29.324(    50)      0
     15     15  C       14   1.381475(    14)      1   83.601(    33)      2 -154.908(    51)      0
     16     16  H       14   1.080353(    15)      1  134.895(    34)     15 -128.807(    52)      0
     17     17  H       14   1.080537(    16)      1   64.553(    35)     15  128.338(    53)      0
     18     18  C       15   1.376735(    17)     14  119.533(    36)      1   28.687(    54)      0
     19     19  H       15   1.083966(    18)     14  118.704(    37)     18 -161.831(    55)      0
     20     20  H       18   1.082026(    19)     15  121.264(    38)     14 -169.809(    56)      0
     21     21  H       18   1.082593(    20)     15  120.636(    39)     20 -164.613(    57)      0
 ---------------------------------------------------------------------------------------------------
                         Z-Matrix orientation:                         
 ---------------------------------------------------------------------
 Center     Atomic      Atomic             Coordinates (Angstroms)
 Number     Number       Type             X           Y           Z
 ---------------------------------------------------------------------
      1          6           0        0.000000    0.000000    0.000000
      2          6           0        0.000000    0.000000    1.394652
      3         16           0        1.526285    0.000000   -0.920153
      4          6           0       -1.211836   -0.019812   -0.696143
      5          8           0        2.641395   -0.043910    0.118936
      6          1           0        0.947835   -0.010542    1.916561
      7          6           0       -1.206214   -0.014738    2.084525
      8          6           0       -2.411353   -0.037514    0.001215
      9          1           0       -1.210252   -0.025536   -1.780409
     10          1           0       -1.198353   -0.019301    3.168245
     11          6           0       -2.415197   -0.032384    1.394909
     12          1           0       -3.347047   -0.056739   -0.546263
     13          1           0       -3.352962   -0.049075    1.938272
     14          6           0        3.414717    1.918108    0.498404
     15          6           0        3.133273    2.427764   -0.754398
     16          1           0        4.418368    1.629106    0.774675
     17          1           0        2.703375    2.019113    1.305466
     18          6           0        1.822609    2.559859   -1.154535
     19          1           0        3.918263    2.435013   -1.501874
     20          1           0        1.569625    2.798995   -2.179031
     21          1           0        1.031650    2.673893   -0.424201
 ---------------------------------------------------------------------
                    Distance matrix (angstroms):
                    1          2          3          4          5
     1  C    0.000000
     2  C    1.394652   0.000000
     3  S    1.782198   2.772701   0.000000
     4  C    1.397697   2.416685   2.747341   0.000000
     5  O    2.644436   2.933657   1.524829   3.938569   0.000000
     6  H    2.138156   1.082078   2.895110   3.389763   2.469962
     7  C    2.408405   1.389638   4.061386   2.780678   4.320704
     8  C    2.411645   2.785264   4.044171   1.387610   5.054123
     9  H    2.152955   3.397995   2.868680   1.084282   4.294535
    10  H    3.387358   2.140573   4.913148   3.864412   4.903320
    11  C    2.789264   2.415414   4.571197   2.412620   5.215109
    12  H    3.391805   3.869508   4.887983   2.140783   6.025287
    13  H    3.873198   3.397100   5.655091   3.394911   6.264370
    14  C    3.948144   4.017797   3.042633   5.156305   2.142787
    15  C    4.034916   4.508863   2.916148   4.987384   2.667176
    16  H    4.772430   4.749772   3.727006   6.048260   2.527174
    17  H    3.617913   3.375353   3.227342   4.846910   2.380705
    18  C    3.347795   4.046373   2.587590   4.009075   3.011935
    19  H    4.851567   5.447195   3.462549   5.743979   3.225287
    20  H    3.878952   4.803052   3.069369   4.228612   3.809390
    21  H    2.897232   3.394441   2.764116   3.516139   3.205110
                    6          7          8          9         10
     6  H    0.000000
     7  C    2.160592   0.000000
     8  C    3.866965   2.406877   0.000000
     9  H    4.280788   3.864951   2.148713   0.000000
    10  H    2.484535   1.083758   3.391427   4.948672   0.000000
    11  C    3.403319   1.391949   1.393709   3.396260   2.150721
    12  H    4.951126   3.392046   1.084262   2.467789   4.291370
    13  H    4.301025   2.151998   2.153823   4.291893   2.481141
    14  C    3.437495   5.254016   6.165610   5.510088   5.671157
    15  C    4.225576   5.732054   6.114852   5.092895   6.335474
    16  H    4.004616   6.004486   7.072549   6.399035   6.324079
    17  H    2.752245   4.475306   5.664911   5.386992   4.780016
    18  C    4.099246   5.127750   5.099856   4.034132   5.870664
    19  H    5.146832   6.717426   6.959648   5.695045   7.349383
    20  H    5.005397   5.813801   5.352330   3.983037   6.648147
    21  H    3.562637   4.304704   4.403064   3.761959   5.013170
                   11         12         13         14         15
    11  C    0.000000
    12  H    2.153390   0.000000
    13  H    1.083940   2.484554   0.000000
    14  C    6.212571   7.121292   7.193366   0.000000
    15  C    6.438739   6.943386   7.446908   1.381475   0.000000
    16  H    7.059947   8.055347   8.035162   1.080353   2.151137
    17  H    5.515108   6.659254   6.430945   1.080537   2.143560
    18  C    5.583761   5.825969   6.569514   2.383036   1.376735
    19  H    7.388648   7.739945   8.418789   2.126467   1.083966
    20  H    6.055457   5.915640   7.021079   3.368826   2.147647
    21  H    4.744876   5.161805   5.676324   2.664849   2.141595
                   16         17         18         19         20
    16  H    0.000000
    17  H    1.837130   0.000000
    18  C    3.365430   2.668288   0.000000
    19  H    2.466226   3.087084   2.127909   0.000000
    20  H    4.267126   3.746375   1.082026   2.471260   0.000000
    21  H    3.741490   2.493020   1.082593   3.090466   1.839700
                   21
    21  H    0.000000
 Symmetry turned off by external request.
 Stoichiometry    C9H10OS
 Framework group  C1[X(C9H10OS)]
 Deg. of freedom    57
 Full point group                 C1      NOp   1
 Rotational constants (GHZ):           2.0480588           0.5809785           0.5520052
 Standard basis: def2TZVP (5D, 7F)
 The following finite field(s) will be applied:
 An electric field of             -0.0097  0.0003  0.0025
   407 basis functions,   659 primitive gaussians,   462 cartesian basis functions
    44 alpha electrons       44 beta electrons
       nuclear repulsion energy       668.2003933862 Hartrees.
 NAtoms=   21 NActive=   21 NUniq=   21 SFac= 1.00D+00 NAtFMM=   60 NAOKFM=F Big=F
 Integral buffers will be    131072 words long.
 Raffenetti 2 integral format.
 Two-electron integral symmetry is turned off.
 One-electron integrals computed using PRISM.
   1 Symmetry operations used in ECPInt.
 ECPInt:  NShTT=   13366 NPrTT=   41614 LenC2=   12637 LenP2D=   29752.
 LDataN:  DoStor=T MaxTD1= 6 Len=  172
 NBasis=   407 RedAO= T EigKep=  8.49D-06  NBF=   407
 NBsUse=   407 1.00D-06 EigRej= -1.00D+00 NBFU=   407
 The nuclear repulsion energy is now       667.2031344250 hartrees.
 Initial guess from the checkpoint file:  "checkpoint.chk"
 B after Tr=     0.000000    0.000000   -0.000000
         Rot=    1.000000    0.000000   -0.000000    0.000000 Ang=   0.00 deg.
 Requested convergence on RMS density matrix=1.00D-08 within 128 cycles.
 Requested convergence on MAX density matrix=1.00D-06.
 Requested convergence on             energy=1.00D-06.
 No special actions if energy rises.
 SCF Done:  E(RB3LYP) =  -822.505096533     A.U. after   12 cycles
            NFock= 12  Conv=0.27D-08     -V/T= 2.0035
 DoSCS=F DFT=T ScalE2(SS,OS)=  1.000000  1.000000
 Range of M.O.s used for correlation:     1   407
 NBasis=   407 NAE=    44 NBE=    44 NFC=     0 NFV=     0
 NROrb=    407 NOA=    44 NOB=    44 NVA=   363 NVB=   363

 **** Warning!!: The largest alpha MO coefficient is  0.66223889D+02

   1 Symmetry operations used in ECPInt.
 ECPInt:  NShTT=   13366 NPrTT=   41614 LenC2=   12637 LenP2D=   29752.
 LDataN:  DoStor=T MaxTD1= 7 Len=  274
 Symmetrizing basis deriv contribution to polar:
 IMax=3 JMax=2 DiffMx= 0.00D+00
 G2DrvN: will do    22 centers at a time, making    1 passes.
 Calling FoFCou, ICntrl=  3107 FMM=F I1Cent=   0 AccDes= 0.00D+00.
 End of G2Drv F.D. properties file   721 does not exist.
 End of G2Drv F.D. properties file   722 does not exist.
 End of G2Drv F.D. properties file   788 does not exist.
          IDoAtm=111111111111111111111
          Differentiating once with respect to nuclear coordinates.
 CalDSu exits because no D1Ps are significant.
          There are    66 degrees of freedom in the 1st order CPHF.  IDoFFX=6 NUNeed=     0.
     60 vectors produced by pass  0 Test12= 2.42D-14 1.52D-09 XBig12= 1.72D-01 1.46D-01.
 AX will form    60 AO Fock derivatives at one time.
     60 vectors produced by pass  1 Test12= 2.42D-14 1.52D-09 XBig12= 6.29D-02 6.33D-02.
     60 vectors produced by pass  2 Test12= 2.42D-14 1.52D-09 XBig12= 1.01D-03 4.20D-03.
     60 vectors produced by pass  3 Test12= 2.42D-14 1.52D-09 XBig12= 6.23D-06 2.88D-04.
     60 vectors produced by pass  4 Test12= 2.42D-14 1.52D-09 XBig12= 1.68D-08 1.13D-05.
     59 vectors produced by pass  5 Test12= 2.42D-14 1.52D-09 XBig12= 3.27D-11 5.86D-07.
     25 vectors produced by pass  6 Test12= 2.42D-14 1.52D-09 XBig12= 4.62D-14 1.96D-08.
 InvSVY:  IOpt=1 It=  1 EMax= 6.11D-16
 Solved reduced A of dimension   384 with    66 vectors.
 End of Minotr F.D. properties file   721 does not exist.
 End of Minotr F.D. properties file   722 does not exist.
 End of Minotr F.D. properties file   788 does not exist.
   1 Symmetry operations used in ECPInt.
 ECPInt:  NShTT=   13366 NPrTT=   41614 LenC2=   12637 LenP2D=   29752.
 LDataN:  DoStor=T MaxTD1= 8 Len=  415
 Calling FoFJK, ICntrl=    100147 FMM=F ISym2X=0 I1Cent= 0 IOpClX= 0 NMat=1 NMatS=1 NMatT=0.
 -------------------------------------------------------------------
 Center     Atomic                   Forces (Hartrees/Bohr)
 Number     Number              X              Y              Z
 -------------------------------------------------------------------
      1        6           0.002171586    0.002825055   -0.001112040
      2        6          -0.001130204   -0.000739080    0.000938905
      3       16           0.000341488   -0.003023552    0.000282102
      4        6          -0.001156908   -0.000023159    0.000162319
      5        8          -0.000918928    0.000627197    0.000120987
      6        1           0.000175978   -0.000015341   -0.000122753
      7        6           0.000426330    0.000016131   -0.000139765
      8        6           0.000500111    0.000021469   -0.000292259
      9        1           0.000183961   -0.000017025   -0.000004263
     10        1           0.000097207   -0.000009315    0.000196932
     11        6          -0.000384399    0.000045426    0.000228937
     12        1          -0.000348617   -0.000014347   -0.000269226
     13        1          -0.000471644   -0.000035053    0.000307269
     14        6           0.000145775   -0.000724303    0.000557295
     15        6          -0.000859026    0.000014266   -0.001578683
     16        1           0.000127144   -0.000093414   -0.000058152
     17        1          -0.000076670    0.000088123    0.000083799
     18        6           0.001039938    0.001094375    0.000506635
     19        1           0.000081219    0.000119090    0.000097253
     20        1           0.000134988   -0.000103427   -0.000107558
     21        1          -0.000079330   -0.000053116    0.000202266
 -------------------------------------------------------------------
 Cartesian Forces:  Max     0.003023552 RMS     0.000763944
 -----------------------------------------------------------------------------------------------
                       Internal Coordinate Forces (Hartree/Bohr or radian)
  Cent   Atom   N1       Length/X         N2         Alpha/Y        N3         Beta/Z          J
 -----------------------------------------------------------------------------------------------
      1  C 
      2  C        1   0.001410(     1)
      3  S        1  -0.000703(     2)      2  -0.002218(    21)
      4  C        1   0.000914(     3)      2   0.001407(    22)      3  -0.000049(    40)     0
      5  O        3  -0.000608(     4)      1  -0.002046(    23)      2  -0.001706(    41)     0
      6  H        2   0.000095(     5)      1  -0.000394(    24)      3  -0.000077(    42)     0
      7  C        2   0.000583(     6)      1   0.003516(    25)      6  -0.000053(    43)     0
      8  C        4  -0.000413(     7)      1   0.001188(    26)      2   0.000047(    44)     0
      9  H        4   0.000005(     8)      1  -0.000376(    27)      8   0.000035(    45)     0
     10  H        7   0.000198(     9)      2  -0.000196(    28)      1  -0.000064(    46)     0
     11  C        7   0.000478(    10)      2   0.002400(    29)     10  -0.000047(    47)     0
     12  H        8   0.000437(    11)      4  -0.000115(    30)      1   0.000012(    48)     0
     13  H       11   0.000563(    12)      7  -0.000060(    31)      2  -0.000047(    49)     0
     14  C        1   0.000573(    13)      2   0.000864(    32)      3   0.003082(    50)     0
     15  C       14   0.001129(    14)      1   0.003335(    33)      2   0.001399(    51)     0
     16  H       14   0.000128(    15)      1  -0.000096(    34)     15   0.000142(    52)     0
     17  H       14   0.000121(    16)      1   0.000089(    35)     15  -0.000118(    53)     0
     18  C       15  -0.001128(    17)     14   0.000474(    36)      1   0.002040(    54)     0
     19  H       15  -0.000007(    18)     14  -0.000134(    37)     18  -0.000289(    55)     0
     20  H       18   0.000047(    19)     15  -0.000315(    38)     14   0.000089(    56)     0
     21  H       18   0.000189(    20)     15  -0.000201(    39)     20  -0.000121(    57)     0
 -----------------------------------------------------------------------------------------------
 Internal  Forces:  Max     0.003515797 RMS     0.001106996

 GradGradGradGradGradGradGradGradGradGradGradGradGradGradGradGradGradGrad
 Berny optimization.
 Search for a saddle point.
 Step number   1 out of a maximum of   67
 All quantities printed in internal units (Hartrees-Bohrs-Radians)
 Swapping is turned off.
 Second derivative matrix not updated -- analytic derivatives used.
 ITU=  0
     Eigenvalues ---   -0.12465   0.00721   0.01226   0.02758   0.03147
     Eigenvalues ---    0.03425   0.03532   0.03816   0.04232   0.05741
     Eigenvalues ---    0.06231   0.06614   0.08198   0.10491   0.11443
     Eigenvalues ---    0.11876   0.13384   0.15784   0.16010   0.16897
     Eigenvalues ---    0.18092   0.19036   0.20694   0.22110   0.22570
     Eigenvalues ---    0.22950   0.23264   0.23545   0.28999   0.30049
     Eigenvalues ---    0.33403   0.34226   0.34603   0.34983   0.35152
     Eigenvalues ---    0.35233   0.35677   0.36006   0.36253   0.36559
     Eigenvalues ---    0.36738   0.38207   0.39322   0.41600   0.42272
     Eigenvalues ---    0.45138   0.46927   0.48756   0.49584   0.51970
     Eigenvalues ---    0.55310   0.57260   1.37435   2.31372   2.68327
     Eigenvalues ---    3.32053  23.89663
 Eigenvectors required to have negative eigenvalues:
                          A15       D15       D5        D17       D18
   1                    0.47377   0.33763  -0.31536  -0.29909   0.27457
                          D14       R5        D21       R15       A17
   1                    0.25539   0.23993  -0.22746   0.22427   0.21694
 RFO step:  Lambda0=1.427235476D-04 Lambda=-2.59951890D-04.
 Linear search not attempted -- option 19 set.
 Maximum step size (   0.100) exceeded in Quadratic search.
    -- Step size scaled by   0.667
 Variable       Old X    -DE/DX   Delta X   Delta X   Delta X     New X
                                 (Linear)    (Quad)   (Total)
    R2        2.63551   0.00141   0.00000   0.00156   0.00156   2.63707
    R3        3.36787  -0.00070   0.00000  -0.00060  -0.00060   3.36726
    R4        2.64126   0.00091   0.00000   0.00132   0.00132   2.64258
    R5        2.88151  -0.00061   0.00000  -0.00490  -0.00490   2.87661
    R6        2.04483   0.00010   0.00000   0.00025   0.00025   2.04508
    R7        2.62604   0.00058   0.00000  -0.00041  -0.00041   2.62563
    R8        2.62220  -0.00041   0.00000  -0.00012  -0.00012   2.62209
    R9        2.04900   0.00000   0.00000   0.00008   0.00008   2.04908
   R10        2.04801   0.00020   0.00000   0.00041   0.00041   2.04841
   R11        2.63040   0.00048   0.00000   0.00096   0.00096   2.63136
   R12        2.04896   0.00044   0.00000   0.00086   0.00086   2.04982
   R13        2.04835   0.00056   0.00000   0.00097   0.00097   2.04932
   R14        7.46091   0.00057   0.00000   0.08199   0.08199   7.54290
   R15        2.61061   0.00113   0.00000  -0.00258  -0.00258   2.60803
   R16        2.04157   0.00013   0.00000   0.00029   0.00029   2.04186
   R17        2.04192   0.00012   0.00000  -0.00000  -0.00000   2.04192
   R18        2.60165  -0.00113   0.00000   0.00175   0.00175   2.60340
   R19        2.04840  -0.00001   0.00000  -0.00005  -0.00005   2.04835
   R20        2.04473   0.00005   0.00000  -0.00001  -0.00001   2.04473
   R21        2.04580   0.00019   0.00000   0.00043   0.00043   2.04623
    A3        2.11332  -0.00222   0.00000  -0.00004  -0.00004   2.11328
    A4        2.09216   0.00141   0.00000  -0.00213  -0.00213   2.09003
    A5        1.84882  -0.00205   0.00000  -0.00015  -0.00015   1.84867
    A6        2.07410  -0.00039   0.00000  -0.00180  -0.00180   2.07230
    A7        2.09029   0.00352   0.00000   0.00108   0.00108   2.09137
    A8        2.09367   0.00119   0.00000   0.00116   0.00116   2.09483
    A9        2.09078  -0.00038   0.00000  -0.00155  -0.00155   2.08923
   A10        2.08308  -0.00020   0.00000  -0.00085  -0.00085   2.08223
   A11        2.10376   0.00240   0.00000   0.00061   0.00061   2.10437
   A12        2.08572  -0.00012   0.00000  -0.00065  -0.00065   2.08506
   A13        2.09817  -0.00006   0.00000   0.00040   0.00040   2.09858
   A14        1.44422   0.00086   0.00000  -0.00011  -0.00011   1.44412
   A15        1.45911   0.00333   0.00000  -0.01328  -0.01328   1.44583
   A16        2.35436  -0.00010   0.00000  -0.00643  -0.00643   2.34792
   A17        1.12666   0.00009   0.00000   0.00922   0.00922   1.13588
   A18        2.08624   0.00047   0.00000   0.00046   0.00046   2.08669
   A19        2.07177  -0.00013   0.00000   0.00086   0.00086   2.07262
   A20        2.11645  -0.00032   0.00000  -0.00051  -0.00051   2.11594
   A21        2.10550  -0.00020   0.00000  -0.00142  -0.00142   2.10408
    D4        3.12525  -0.00005   0.00000   0.00379   0.00379   3.12904
    D5        0.02995  -0.00171   0.00000   0.03624   0.03624   0.06619
    D6       -0.01112  -0.00008   0.00000  -0.00401  -0.00401  -0.01513
    D7       -3.11825  -0.00005   0.00000   0.00172   0.00172  -3.11654
    D8        0.00159   0.00005   0.00000  -0.00067  -0.00067   0.00092
    D9        3.14611   0.00003   0.00000   0.00145   0.00145   3.14756
   D10        3.13666  -0.00006   0.00000  -0.00067  -0.00067   3.13599
   D11       -3.13426  -0.00005   0.00000  -0.00090  -0.00090  -3.13516
   D12       -3.13745   0.00001   0.00000   0.00071   0.00071  -3.13674
   D13        3.13599  -0.00005   0.00000  -0.00049  -0.00049   3.13550
   D14       -0.51180   0.00308   0.00000   0.02439   0.02439  -0.48740
   D15       -2.70366   0.00140   0.00000   0.01377   0.01377  -2.68989
   D16       -2.24811   0.00014   0.00000   0.01889   0.01889  -2.22923
   D17        2.23991  -0.00012   0.00000   0.00648   0.00648   2.24639
   D18        0.50068   0.00204   0.00000   0.01416   0.01416   0.51484
   D19       -2.82448  -0.00029   0.00000  -0.00869  -0.00869  -2.83318
   D20       -2.96372   0.00009   0.00000  -0.00955  -0.00955  -2.97327
   D21       -2.87303  -0.00012   0.00000   0.00380   0.00380  -2.86923
         Item               Value     Threshold  Converged?
 Maximum Force            0.003516     0.000450     NO 
 RMS     Force            0.001107     0.000300     NO 
 Maximum Displacement     0.081987     0.001800     NO 
 RMS     Displacement     0.013245     0.001200     NO 
 Predicted change in Energy=-5.332981D-05
 GradGradGradGradGradGradGradGradGradGradGradGradGradGradGradGradGradGrad

 ---------------------------------------------------------------------------------------------------
                            Z-MATRIX (ANGSTROMS AND DEGREES)
   CD    Cent   Atom    N1       Length/X        N2       Alpha/Y        N3        Beta/Z          J
 ---------------------------------------------------------------------------------------------------
      1      1  C 
      2      2  C        1   1.395476(     1)
      3      3  S        1   1.781879(     2)      2  121.082(    21)
      4      4  C        1   1.398396(     3)      2  119.750(    22)      3  179.281(    40)      0
      5      5  O        3   1.522236(     4)      1  105.921(    23)      2    3.792(    41)      0
      6      6  H        2   1.082212(     5)      1  118.734(    24)      3   -0.867(    42)      0
      7      7  C        2   1.389422(     6)      1  119.827(    25)      6 -178.564(    43)      0
      8      8  C        4   1.387548(     7)      1  120.025(    26)      2    0.053(    44)      0
      9      9  H        4   1.084326(     8)      1  119.704(    27)      8  180.342(    45)      0
     10     10  H        7   1.083974(     9)      2  119.303(    28)      1  179.679(    46)      0
     11     11  C        7   1.392456(    10)      2  120.572(    29)     10 -179.632(    47)      0
     12     12  H        8   1.084716(    11)      4  119.465(    30)      1 -179.722(    48)      0
     13     13  H       11   1.084453(    12)      7  120.240(    31)      2  179.651(    49)      0
     14     14  C        1   3.991530(    13)      2   82.742(    32)      3  -27.926(    50)      0
     15     15  C       14   1.380109(    14)      1   82.840(    33)      2 -154.120(    51)      0
     16     16  H       14   1.080505(    15)      1  134.526(    34)     15 -127.725(    52)      0
     17     17  H       14   1.080536(    16)      1   65.081(    35)     15  128.709(    53)      0
     18     18  C       15   1.377660(    17)     14  119.559(    36)      1   29.498(    54)      0
     19     19  H       15   1.083939(    18)     14  118.753(    37)     18 -162.329(    55)      0
     20     20  H       18   1.082022(    19)     15  121.235(    38)     14 -170.356(    56)      0
     21     21  H       18   1.082819(    20)     15  120.555(    39)     20 -164.395(    57)      0
 ---------------------------------------------------------------------------------------------------
                         Z-Matrix orientation:                         
 ---------------------------------------------------------------------
 Center     Atomic      Atomic             Coordinates (Angstroms)
 Number     Number       Type             X           Y           Z
 ---------------------------------------------------------------------
      1          6           0        0.000000    0.000000    0.000000
      2          6           0        0.000000    0.000000    1.395476
      3         16           0        1.526050    0.000000   -0.919927
      4          6           0       -1.213989   -0.015242   -0.693909
      5          8           0        2.637745   -0.096822    0.115430
      6          1           0        0.948841   -0.014361    1.915742
      7          6           0       -1.205309   -0.011959    2.086548
      8          6           0       -2.412825   -0.029189    0.004581
      9          1           0       -1.213043   -0.021720   -1.778215
     10          1           0       -1.195359   -0.017152    3.170464
     11          6           0       -2.415953   -0.024968    1.398721
     12          1           0       -3.349138   -0.045537   -0.542830
     13          1           0       -3.353497   -0.039969    1.943537
     14          6           0        3.498465    1.854384    0.504297
     15          6           0        3.205300    2.375479   -0.739574
     16          1           0        4.497993    1.530904    0.756874
     17          1           0        2.803693    1.962034    1.324823
     18          6           0        1.890022    2.548065   -1.111336
     19          1           0        3.975606    2.369490   -1.502148
     20          1           0        1.623504    2.806356   -2.127715
     21          1           0        1.118836    2.678113   -0.362434
 ---------------------------------------------------------------------
                    Distance matrix (angstroms):
                    1          2          3          4          5
     1  C    0.000000
     2  C    1.395476   0.000000
     3  S    1.781879   2.773071   0.000000
     4  C    1.398396   2.416512   2.749387   0.000000
     5  O    2.642044   2.933529   1.522236   3.936691   0.000000
     6  H    2.137890   1.082212   2.893854   3.389412   2.469882
     7  C    2.409688   1.389422   4.061940   2.780472   4.319904
     8  C    2.413006   2.785169   4.046023   1.387548   5.052238
     9  H    2.152671   3.397685   2.870498   1.084326   4.291864
    10  H    3.388365   2.140037   4.913009   3.864418   4.902271
    11  C    2.791751   2.416084   4.573417   2.413279   5.214581
    12  H    3.393150   3.869862   4.889963   2.140702   6.023180
    13  H    3.876194   3.398222   5.657827   3.396208   6.264199
    14  C    3.991530   4.058595   3.059015   5.209454   2.167777
    15  C    4.057563   4.524963   2.914671   5.024713   2.676830
    16  H    4.811285   4.794102   3.740023   6.092788   2.553715
    17  H    3.669527   3.422757   3.243586   4.911890   2.393544
    18  C    3.361531   4.043381   2.581036   4.047181   3.009895
    19  H    4.865837   5.460416   3.457425   5.768196   3.238691
    20  H    3.877960   4.787930   3.056777   4.250715   3.806419
    21  H    2.924969   3.393278   2.765667   3.578562   3.199328
                    6          7          8          9         10
     6  H    0.000000
     7  C    2.160913   0.000000
     8  C    3.866983   2.406860   0.000000
     9  H    4.280083   3.864783   2.148928   0.000000
    10  H    2.484337   1.083974   3.391929   4.948712   0.000000
    11  C    3.404301   1.392456   1.394150   3.397047   2.151507
    12  H    4.951583   3.392751   1.084716   2.467721   4.292798
    13  H    4.302504   2.153125   2.155118   4.293404   2.482625
    14  C    3.461930   5.302098   6.224219   5.561288   5.713412
    15  C    4.225357   5.756761   6.156259   5.132941   6.354438
    16  H    4.040704   6.056080   7.124551   6.438419   6.374649
    17  H    2.774130   4.533098   5.737601   5.449614   4.828663
    18  C    4.076156   5.134322   5.138288   4.083814   5.868026
    19  H    5.150341   6.737352   6.988271   5.719805   7.366698
    20  H    4.976058   5.805609   5.373914   4.020716   6.632412
    21  H    3.531062   4.316903   4.465066   3.838124   5.010122
                   11         12         13         14         15
    11  C    0.000000
    12  H    2.154270   0.000000
    13  H    1.084453   2.486378   0.000000
    14  C    6.269952   7.183024   7.253231   0.000000
    15  C    6.475565   6.990042   7.486741   1.380109   0.000000
    16  H    7.115852   8.108752   8.094547   1.080505   2.150284
    17  H    5.585548   6.736156   6.503985   1.080536   2.143353
    18  C    5.609128   5.873566   6.597323   2.382971   1.377660
    19  H    7.416231   7.772034   8.449496   2.125751   1.083939
    20  H    6.063774   5.947464   7.031870   3.368859   2.148178
    21  H    4.785713   5.235800   5.719024   2.663153   2.141765
                   16         17         18         19         20
    16  H    0.000000
    17  H    1.838230   0.000000
    18  C    3.365462   2.667039   0.000000
    19  H    2.465623   3.087258   2.129385   0.000000
    20  H    4.267355   3.745096   1.082022   2.472765   0.000000
    21  H    3.740006   2.489649   1.082819   3.091170   1.840476
                   21
    21  H    0.000000
 Symmetry turned off by external request.
 Stoichiometry    C9H10OS
 Framework group  C1[X(C9H10OS)]
 Deg. of freedom    57
 Full point group                 C1      NOp   1
 Rotational constants (GHZ):           2.0673598           0.5758445           0.5467756
 Standard basis: def2TZVP (5D, 7F)
 The following finite field(s) will be applied:
 An electric field of             -0.0097  0.0003  0.0025
   407 basis functions,   659 primitive gaussians,   462 cartesian basis functions
    44 alpha electrons       44 beta electrons
       nuclear repulsion energy       667.3247390407 Hartrees.
 NAtoms=   21 NActive=   21 NUniq=   21 SFac= 1.00D+00 NAtFMM=   60 NAOKFM=F Big=F
 Integral buffers will be    131072 words long.
 Raffenetti 2 integral format.
 Two-electron integral symmetry is turned off.
 One-electron integrals computed using PRISM.
   1 Symmetry operations used in ECPInt.
 ECPInt:  NShTT=   13366 NPrTT=   41614 LenC2=   12621 LenP2D=   29709.
 LDataN:  DoStor=T MaxTD1= 6 Len=  172
 NBasis=   407 RedAO= T EigKep=  8.56D-06  NBF=   407
 NBsUse=   407 1.00D-06 EigRej= -1.00D+00 NBFU=   407
 The nuclear repulsion energy is now       666.2990046761 hartrees.
 Initial guess from the checkpoint file:  "checkpoint.chk"
 B after Tr=     0.016899   -0.004102    0.001599
         Rot=    0.999948   -0.005588   -0.000763    0.008441 Ang=  -1.16 deg.
 ExpMin= 9.52D-02 ExpMax= 6.07D+04 ExpMxC= 2.07D+03 IAcc=2 IRadAn=         4 AccDes= 0.00D+00
 Harris functional with IExCor=  402 and IRadAn=       4 diagonalized for initial guess.
 HarFok:  IExCor=  402 AccDes= 0.00D+00 IRadAn=         4 IDoV= 1 UseB2=F ITyADJ=14
 ICtDFT=  3500011 ScaDFX=  1.000000  1.000000  1.000000  1.000000
 FoFCou: FMM=F IPFlag=           0 FMFlag=      100000 FMFlg1=           0
         NFxFlg=           0 DoJE=T BraDBF=F KetDBF=T FulRan=T
         wScrn=  0.000000 ICntrl=       500 IOpCl=  0 I1Cent=   200000004 NGrid=           0
         NMat0=    1 NMatS0=      1 NMatT0=    0 NMatD0=    1 NMtDS0=    0 NMtDT0=    0
 Symmetry not used in FoFCou.
 Requested convergence on RMS density matrix=1.00D-08 within 128 cycles.
 Requested convergence on MAX density matrix=1.00D-06.
 Requested convergence on             energy=1.00D-06.
 No special actions if energy rises.
 Integral accuracy reduced to 1.0D-05 until final iterations.
 Initial convergence to 1.0D-05 achieved.  Increase integral accuracy.
 SCF Done:  E(RB3LYP) =  -822.505149603     A.U. after   12 cycles
            NFock= 12  Conv=0.88D-08     -V/T= 2.0035
   1 Symmetry operations used in ECPInt.
 ECPInt:  NShTT=   13366 NPrTT=   41614 LenC2=   12621 LenP2D=   29709.
 LDataN:  DoStor=T MaxTD1= 7 Len=  274
 Calling FoFJK, ICntrl=      2127 FMM=F ISym2X=0 I1Cent= 0 IOpClX= 0 NMat=1 NMatS=1 NMatT=0.
 -------------------------------------------------------------------
 Center     Atomic                   Forces (Hartrees/Bohr)
 Number     Number              X              Y              Z
 -------------------------------------------------------------------
      1        6           0.001041913    0.003764128   -0.000371458
      2        6          -0.000720360   -0.001008177    0.000314725
      3       16           0.000122620   -0.003023691    0.000023330
      4        6          -0.000380539   -0.000003270    0.000053729
      5        8          -0.000283522    0.000181459    0.000153032
      6        1           0.000057390   -0.000008873   -0.000035735
      7        6           0.000151012    0.000005597   -0.000040624
      8        6           0.000159489    0.000004601   -0.000089009
      9        1           0.000064035   -0.000004616    0.000000036
     10        1           0.000032034   -0.000002672    0.000065842
     11        6          -0.000127640    0.000016073    0.000066664
     12        1          -0.000116609   -0.000004926   -0.000089554
     13        1          -0.000157110   -0.000011200    0.000102630
     14        6           0.000114371   -0.000301516    0.000159611
     15        6          -0.000358554    0.000035911   -0.000544192
     16        1           0.000042693   -0.000027838    0.000000384
     17        1          -0.000033863    0.000020471    0.000029800
     18        6           0.000343356    0.000371455    0.000132070
     19        1           0.000031783    0.000041876    0.000036494
     20        1           0.000046340   -0.000020576   -0.000033513
     21        1          -0.000028837   -0.000024217    0.000065737
 -------------------------------------------------------------------
 Cartesian Forces:  Max     0.003764128 RMS     0.000660287
 -----------------------------------------------------------------------------------------------
                       Internal Coordinate Forces (Hartree/Bohr or radian)
  Cent   Atom   N1       Length/X         N2         Alpha/Y        N3         Beta/Z          J
 -----------------------------------------------------------------------------------------------
      1  C 
      2  C        1   0.000474(     1)
      3  S        1  -0.000229(     2)      2  -0.001105(    21)
      4  C        1   0.000300(     3)      2   0.000444(    22)      3  -0.000019(    40)     0
      5  O        3  -0.000115(     4)      1  -0.000869(    23)      2  -0.000498(    41)     0
      6  H        2   0.000033(     5)      1  -0.000121(    24)      3  -0.000037(    42)     0
      7  C        2   0.000185(     6)      1   0.001152(    25)      6  -0.000023(    43)     0
      8  C        4  -0.000127(     7)      1   0.000386(    26)      2   0.000008(    44)     0
      9  H        4   0.000000(     8)      1  -0.000131(    27)      8   0.000009(    45)     0
     10  H        7   0.000066(     9)      2  -0.000064(    28)      1  -0.000022(    46)     0
     11  C        7   0.000164(    10)      2   0.000777(    29)     10  -0.000017(    47)     0
     12  H        8   0.000146(    11)      4  -0.000038(    30)      1   0.000005(    48)     0
     13  H       11   0.000188(    12)      7  -0.000020(    31)      2  -0.000015(    49)     0
     14  C        1   0.000163(    13)      2   0.000657(    32)      3   0.001062(    50)     0
     15  C       14   0.000455(    14)      1   0.001125(    33)      2   0.000557(    51)     0
     16  H       14   0.000048(    15)      1  -0.000026(    34)     15   0.000017(    52)     0
     17  H       14   0.000046(    16)      1   0.000007(    35)     15  -0.000031(    53)     0
     18  C       15  -0.000348(    17)     14   0.000246(    36)      1   0.000686(    54)     0
     19  H       15  -0.000003(    18)     14  -0.000052(    37)     18  -0.000105(    55)     0
     20  H       18   0.000015(    19)     15  -0.000109(    38)     14  -0.000009(    56)     0
     21  H       18   0.000063(    20)     15  -0.000060(    39)     20  -0.000053(    57)     0
 -----------------------------------------------------------------------------------------------
 Internal  Forces:  Max     0.001152035 RMS     0.000400078

 GradGradGradGradGradGradGradGradGradGradGradGradGradGradGradGradGradGrad
 Berny optimization.
 Search for a saddle point.
 Step number   2 out of a maximum of   67
 All quantities printed in internal units (Hartrees-Bohrs-Radians)
 Swapping is turned off.
 Update second derivatives using D2CorN and points    1    2
 ITU=  0  0
     Eigenvalues ---   -0.12449   0.00721   0.01226   0.02758   0.03147
     Eigenvalues ---    0.03423   0.03532   0.03817   0.04232   0.05742
     Eigenvalues ---    0.06232   0.06614   0.08198   0.10491   0.11443
     Eigenvalues ---    0.11876   0.13384   0.15783   0.16009   0.16897
     Eigenvalues ---    0.18092   0.19036   0.20694   0.22110   0.22570
     Eigenvalues ---    0.22950   0.23264   0.23545   0.28999   0.30049
     Eigenvalues ---    0.33403   0.34226   0.34603   0.34983   0.35151
     Eigenvalues ---    0.35233   0.35677   0.36006   0.36253   0.36559
     Eigenvalues ---    0.36738   0.38207   0.39323   0.41600   0.42272
     Eigenvalues ---    0.45138   0.46927   0.48756   0.49584   0.51970
     Eigenvalues ---    0.55310   0.57260   1.37431   2.31371   2.68327
     Eigenvalues ---    3.32053  23.89663
 Eigenvectors required to have negative eigenvalues:
                          A15       D15       D5        D17       D18
   1                    0.47367   0.33814  -0.31447  -0.29921   0.27520
                          D14       R5        D21       R15       A17
   1                    0.25609   0.23983  -0.22765   0.22423   0.21740
 RFO step:  Lambda0=1.754063816D-05 Lambda=-3.27330272D-05.
 Linear search not attempted -- option 19 set.
 Variable       Old X    -DE/DX   Delta X   Delta X   Delta X     New X
                                 (Linear)    (Quad)   (Total)
    R2        2.63707   0.00047   0.00000   0.00080   0.00080   2.63787
    R3        3.36726  -0.00023   0.00000  -0.00014  -0.00014   3.36712
    R4        2.64258   0.00030   0.00000   0.00063   0.00063   2.64321
    R5        2.87661  -0.00011   0.00000  -0.00232  -0.00232   2.87429
    R6        2.04508   0.00003   0.00000   0.00013   0.00013   2.04522
    R7        2.62563   0.00018   0.00000  -0.00023  -0.00023   2.62540
    R8        2.62209  -0.00013   0.00000  -0.00003  -0.00003   2.62206
    R9        2.04908   0.00000   0.00000   0.00004   0.00004   2.04911
   R10        2.04841   0.00007   0.00000   0.00020   0.00020   2.04862
   R11        2.63136   0.00016   0.00000   0.00051   0.00051   2.63187
   R12        2.04982   0.00015   0.00000   0.00043   0.00043   2.05024
   R13        2.04932   0.00019   0.00000   0.00049   0.00049   2.04981
   R14        7.54290   0.00016   0.00000   0.04448   0.04448   7.58738
   R15        2.60803   0.00045   0.00000  -0.00125  -0.00125   2.60678
   R16        2.04186   0.00005   0.00000   0.00016   0.00016   2.04202
   R17        2.04192   0.00005   0.00000   0.00001   0.00001   2.04192
   R18        2.60340  -0.00035   0.00000   0.00096   0.00096   2.60436
   R19        2.04835  -0.00000   0.00000  -0.00002  -0.00002   2.04833
   R20        2.04473   0.00002   0.00000  -0.00000  -0.00000   2.04472
   R21        2.04623   0.00006   0.00000   0.00021   0.00021   2.04645
    A3        2.11328  -0.00111   0.00000  -0.00001  -0.00001   2.11327
    A4        2.09003   0.00044   0.00000  -0.00106  -0.00106   2.08897
    A5        1.84867  -0.00087   0.00000  -0.00019  -0.00019   1.84848
    A6        2.07230  -0.00012   0.00000  -0.00086  -0.00086   2.07144
    A7        2.09137   0.00115   0.00000   0.00055   0.00055   2.09192
    A8        2.09483   0.00039   0.00000   0.00058   0.00058   2.09541
    A9        2.08923  -0.00013   0.00000  -0.00080  -0.00080   2.08843
   A10        2.08223  -0.00006   0.00000  -0.00041  -0.00041   2.08183
   A11        2.10437   0.00078   0.00000   0.00029   0.00029   2.10466
   A12        2.08506  -0.00004   0.00000  -0.00032  -0.00032   2.08474
   A13        2.09858  -0.00002   0.00000   0.00019   0.00019   2.09877
   A14        1.44412   0.00066   0.00000   0.00044   0.00044   1.44456
   A15        1.44583   0.00113   0.00000  -0.00752  -0.00752   1.43831
   A16        2.34792  -0.00003   0.00000  -0.00281  -0.00281   2.34511
   A17        1.13588   0.00001   0.00000   0.00525   0.00525   1.14113
   A18        2.08669   0.00025   0.00000   0.00048   0.00048   2.08718
   A19        2.07262  -0.00005   0.00000   0.00033   0.00033   2.07296
   A20        2.11594  -0.00011   0.00000  -0.00034  -0.00034   2.11561
   A21        2.10408  -0.00006   0.00000  -0.00068  -0.00068   2.10340
    D4        3.12904  -0.00002   0.00000   0.00212   0.00212   3.13116
    D5        0.06619  -0.00050   0.00000   0.01946   0.01946   0.08565
    D6       -0.01513  -0.00004   0.00000  -0.00226  -0.00226  -0.01739
    D7       -3.11654  -0.00002   0.00000   0.00097   0.00097  -3.11556
    D8        0.00092   0.00001   0.00000  -0.00045  -0.00045   0.00047
    D9        3.14756   0.00001   0.00000   0.00078   0.00078   3.14834
   D10        3.13599  -0.00002   0.00000  -0.00033  -0.00033   3.13567
   D11       -3.13516  -0.00002   0.00000  -0.00049  -0.00049  -3.13565
   D12       -3.13674   0.00000   0.00000   0.00041   0.00041  -3.13633
   D13        3.13550  -0.00002   0.00000  -0.00026  -0.00026   3.13525
   D14       -0.48740   0.00106   0.00000   0.01333   0.01333  -0.47407
   D15       -2.68989   0.00056   0.00000   0.00855   0.00855  -2.68135
   D16       -2.22923   0.00002   0.00000   0.00987   0.00987  -2.21935
   D17        2.24639  -0.00003   0.00000   0.00343   0.00343   2.24982
   D18        0.51484   0.00069   0.00000   0.00709   0.00709   0.52192
   D19       -2.83318  -0.00011   0.00000  -0.00459  -0.00459  -2.83776
   D20       -2.97327  -0.00001   0.00000  -0.00540  -0.00540  -2.97867
   D21       -2.86923  -0.00005   0.00000   0.00232   0.00232  -2.86691
         Item               Value     Threshold  Converged?
 Maximum Force            0.001152     0.000450     NO 
 RMS     Force            0.000400     0.000300     NO 
 Maximum Displacement     0.044484     0.001800     NO 
 RMS     Displacement     0.007184     0.001200     NO 
 Predicted change in Energy=-7.640929D-06
 GradGradGradGradGradGradGradGradGradGradGradGradGradGradGradGradGradGrad

 ---------------------------------------------------------------------------------------------------
                            Z-MATRIX (ANGSTROMS AND DEGREES)
   CD    Cent   Atom    N1       Length/X        N2       Alpha/Y        N3        Beta/Z          J
 ---------------------------------------------------------------------------------------------------
      1      1  C 
      2      2  C        1   1.395900(     1)
      3      3  S        1   1.781805(     2)      2  121.081(    21)
      4      4  C        1   1.398729(     3)      2  119.689(    22)      3  179.402(    40)      0
      5      5  O        3   1.521010(     4)      1  105.910(    23)      2    4.907(    41)      0
      6      6  H        2   1.082282(     5)      1  118.685(    24)      3   -0.997(    42)      0
      7      7  C        2   1.389301(     6)      1  119.858(    25)      6 -178.509(    43)      0
      8      8  C        4   1.387535(     7)      1  120.058(    26)      2    0.027(    44)      0
      9      9  H        4   1.084345(     8)      1  119.658(    27)      8  180.387(    45)      0
     10     10  H        7   1.084082(     9)      2  119.280(    28)      1  179.660(    46)      0
     11     11  C        7   1.392723(    10)      2  120.588(    29)     10 -179.660(    47)      0
     12     12  H        8   1.084943(    11)      4  119.447(    30)      1 -179.698(    48)      0
     13     13  H       11   1.084711(    12)      7  120.250(    31)      2  179.636(    49)      0
     14     14  C        1   4.015070(    13)      2   82.767(    32)      3  -27.162(    50)      0
     15     15  C       14   1.379450(    14)      1   82.409(    33)      2 -153.630(    51)      0
     16     16  H       14   1.080590(    15)      1  134.365(    34)     15 -127.159(    52)      0
     17     17  H       14   1.080540(    16)      1   65.382(    35)     15  128.905(    53)      0
     18     18  C       15   1.378167(    17)     14  119.586(    36)      1   29.904(    54)      0
     19     19  H       15   1.083931(    18)     14  118.772(    37)     18 -162.592(    55)      0
     20     20  H       18   1.082021(    19)     15  121.215(    38)     14 -170.665(    56)      0
     21     21  H       18   1.082932(    20)     15  120.516(    39)     20 -164.262(    57)      0
 ---------------------------------------------------------------------------------------------------
                         Z-Matrix orientation:                         
 ---------------------------------------------------------------------
 Center     Atomic      Atomic             Coordinates (Angstroms)
 Number     Number       Type             X           Y           Z
 ---------------------------------------------------------------------
      1          6           0        0.000000    0.000000    0.000000
      2          6           0        0.000000    0.000000    1.395900
      3         16           0        1.525998    0.000000   -0.919868
      4          6           0       -1.215042   -0.012675   -0.692788
      5          8           0        2.635475   -0.125126    0.113029
      6          1           0        0.949314   -0.016513    1.915384
      7          6           0       -1.204842   -0.010404    2.087569
      8          6           0       -2.413552   -0.024610    0.006273
      9          1           0       -1.214390   -0.019473   -1.777111
     10          1           0       -1.193860   -0.015914    3.171581
     11          6           0       -2.416316   -0.020882    1.400620
     12          1           0       -3.350174   -0.039360   -0.541105
     13          1           0       -3.353749   -0.034924    1.946164
     14          6           0        3.543854    1.818332    0.505521
     15          6           0        3.242994    2.346581   -0.732751
     16          1           0        4.540983    1.477036    0.744115
     17          1           0        2.859043    1.928750    1.334019
     18          6           0        1.925588    2.540511   -1.087963
     19          1           0        4.004483    2.334673   -1.504048
     20          1           0        1.651349    2.810158   -2.099326
     21          1           0        1.165809    2.677846   -0.328610
 ---------------------------------------------------------------------
                    Distance matrix (angstroms):
                    1          2          3          4          5
     1  C    0.000000
     2  C    1.395900   0.000000
     3  S    1.781805   2.773347   0.000000
     4  C    1.398729   2.416424   2.750459   0.000000
     5  O    2.640863   2.933793   1.521010   3.935539   0.000000
     6  H    2.137794   1.082282   2.893353   3.389249   2.470509
     7  C    2.410331   1.389301   4.062299   2.780376   4.319722
     8  C    2.413686   2.785122   4.047023   1.387535   5.051155
     9  H    2.152498   3.397517   2.871406   1.084345   4.290134
    10  H    3.388876   2.139766   4.913027   3.864428   4.902088
    11  C    2.792983   2.416410   4.574597   2.413604   5.214340
    12  H    3.393820   3.870039   4.891019   2.140680   6.021897
    13  H    3.877681   3.398771   5.659266   3.396856   6.264130
    14  C    4.015070   4.081422   3.067541   5.237902   2.180878
    15  C    4.069445   4.533719   2.913680   5.043984   2.682118
    16  H    4.832791   4.819438   3.747080   6.116841   2.568298
    17  H    3.697811   3.449353   3.252244   4.947246   2.399834
    18  C    3.368345   4.041245   2.577232   4.066752   3.008644
    19  H    4.873268   5.467749   3.454686   5.780279   3.246496
    20  H    3.876997   4.779178   3.050216   4.261799   3.805116
    21  H    2.939040   3.391741   2.765897   3.611092   3.195561
                    6          7          8          9         10
     6  H    0.000000
     7  C    2.161035   0.000000
     8  C    3.866994   2.406860   0.000000
     9  H    4.279736   3.864702   2.149063   0.000000
    10  H    2.484195   1.084082   3.392182   4.948736   0.000000
    11  C    3.404771   1.392723   1.394356   3.397441   2.151912
    12  H    4.951814   3.393113   1.084943   2.467728   4.293516
    13  H    4.303213   2.153695   2.155750   4.294167   2.483371
    14  C    3.476493   5.328908   6.255907   5.588276   5.737444
    15  C    4.225849   5.769994   6.177801   5.153366   6.364815
    16  H    4.062345   6.085380   7.152965   6.459136   6.403898
    17  H    2.787310   4.565448   5.777438   5.483389   4.856375
    18  C    4.063444   5.137194   5.158036   4.109489   5.866002
    19  H    5.153120   6.748049   7.002747   5.731772   7.376282
    20  H    4.959921   5.800300   5.384503   4.040185   6.623017
    21  H    3.513111   4.322568   4.497471   3.878020   5.007566
                   11         12         13         14         15
    11  C    0.000000
    12  H    2.154700   0.000000
    13  H    1.084711   2.487275   0.000000
    14  C    6.301391   7.216237   7.286078   0.000000
    15  C    6.494917   7.014222   7.507675   1.379450   0.000000
    16  H    7.146941   8.137666   8.127591   1.080590   2.149887
    17  H    5.624492   6.778195   6.544427   1.080540   2.143254
    18  C    5.621913   5.898173   6.611368   2.383175   1.378167
    19  H    7.430504   7.788086   8.465373   2.125360   1.083931
    20  H    6.067150   5.963475   7.036440   3.369054   2.148433
    21  H    4.806765   5.274701   5.741091   2.662637   2.141907
                   16         17         18         19         20
    16  H    0.000000
    17  H    1.838737   0.000000
    18  C    3.365677   2.666756   0.000000
    19  H    2.465281   3.087301   2.130094   0.000000
    20  H    4.267593   3.744764   1.082021   2.473395   0.000000
    21  H    3.739582   2.488477   1.082932   3.091519   1.840840
                   21
    21  H    0.000000
 Symmetry turned off by external request.
 Stoichiometry    C9H10OS
 Framework group  C1[X(C9H10OS)]
 Deg. of freedom    57
 Full point group                 C1      NOp   1
 Rotational constants (GHZ):           2.0781958           0.5731121           0.5440123
 Standard basis: def2TZVP (5D, 7F)
 The following finite field(s) will be applied:
 An electric field of             -0.0097  0.0003  0.0025
   407 basis functions,   659 primitive gaussians,   462 cartesian basis functions
    44 alpha electrons       44 beta electrons
       nuclear repulsion energy       666.8636500811 Hartrees.
 NAtoms=   21 NActive=   21 NUniq=   21 SFac= 1.00D+00 NAtFMM=   60 NAOKFM=F Big=F
 Integral buffers will be    131072 words long.
 Raffenetti 2 integral format.
 Two-electron integral symmetry is turned off.
 One-electron integrals computed using PRISM.
   1 Symmetry operations used in ECPInt.
 ECPInt:  NShTT=   13366 NPrTT=   41614 LenC2=   12618 LenP2D=   29693.
 LDataN:  DoStor=T MaxTD1= 6 Len=  172
 NBasis=   407 RedAO= T EigKep=  8.61D-06  NBF=   407
 NBsUse=   407 1.00D-06 EigRej= -1.00D+00 NBFU=   407
 The nuclear repulsion energy is now       665.8226179017 hartrees.
 Initial guess from the checkpoint file:  "checkpoint.chk"
 B after Tr=     0.009005   -0.002340    0.000520
         Rot=    0.999985   -0.003020   -0.000486    0.004559 Ang=  -0.63 deg.
 ExpMin= 9.52D-02 ExpMax= 6.07D+04 ExpMxC= 2.07D+03 IAcc=2 IRadAn=         4 AccDes= 0.00D+00
 Harris functional with IExCor=  402 and IRadAn=       4 diagonalized for initial guess.
 HarFok:  IExCor=  402 AccDes= 0.00D+00 IRadAn=         4 IDoV= 1 UseB2=F ITyADJ=14
 ICtDFT=  3500011 ScaDFX=  1.000000  1.000000  1.000000  1.000000
 FoFCou: FMM=F IPFlag=           0 FMFlag=      100000 FMFlg1=           0
         NFxFlg=           0 DoJE=T BraDBF=F KetDBF=T FulRan=T
         wScrn=  0.000000 ICntrl=       500 IOpCl=  0 I1Cent=   200000004 NGrid=           0
         NMat0=    1 NMatS0=      1 NMatT0=    0 NMatD0=    1 NMtDS0=    0 NMtDT0=    0
 Symmetry not used in FoFCou.
 Requested convergence on RMS density matrix=1.00D-08 within 128 cycles.
 Requested convergence on MAX density matrix=1.00D-06.
 Requested convergence on             energy=1.00D-06.
 No special actions if energy rises.
 Integral accuracy reduced to 1.0D-05 until final iterations.
 Initial convergence to 1.0D-05 achieved.  Increase integral accuracy.
 SCF Done:  E(RB3LYP) =  -822.505157271     A.U. after   12 cycles
            NFock= 12  Conv=0.27D-08     -V/T= 2.0035
   1 Symmetry operations used in ECPInt.
 ECPInt:  NShTT=   13366 NPrTT=   41614 LenC2=   12618 LenP2D=   29693.
 LDataN:  DoStor=T MaxTD1= 7 Len=  274
 Calling FoFJK, ICntrl=      2127 FMM=F ISym2X=0 I1Cent= 0 IOpClX= 0 NMat=1 NMatS=1 NMatT=0.
 -------------------------------------------------------------------
 Center     Atomic                   Forces (Hartrees/Bohr)
 Number     Number              X              Y              Z
 -------------------------------------------------------------------
      1        6           0.000503991    0.004273138    0.000004651
      2        6          -0.000515160   -0.001160520    0.000002034
      3       16           0.000025425   -0.003049988   -0.000061140
      4        6           0.000005778    0.000002100   -0.000001034
      5        8           0.000011987   -0.000048104    0.000117590
      6        1           0.000000068   -0.000001110    0.000004373
      7        6           0.000009701    0.000000213    0.000006684
      8        6          -0.000007251   -0.000002163    0.000008889
      9        1           0.000003155    0.000001737    0.000001806
     10        1          -0.000000536    0.000000539    0.000000544
     11        6           0.000000107    0.000000520   -0.000010948
     12        1          -0.000000462   -0.000000415    0.000000251
     13        1          -0.000000198    0.000000327    0.000000302
     14        6           0.000049034   -0.000063605   -0.000041060
     15        6          -0.000051517    0.000022985   -0.000023016
     16        1           0.000001729    0.000004683    0.000022767
     17        1          -0.000015074   -0.000012985   -0.000002436
     18        6          -0.000024348    0.000017713   -0.000036078
     19        1           0.000003023    0.000001599    0.000004324
     20        1           0.000003576    0.000015563    0.000003841
     21        1          -0.000003028   -0.000002226   -0.000002346
 -------------------------------------------------------------------
 Cartesian Forces:  Max     0.004273138 RMS     0.000683883
 -----------------------------------------------------------------------------------------------
                       Internal Coordinate Forces (Hartree/Bohr or radian)
  Cent   Atom   N1       Length/X         N2         Alpha/Y        N3         Beta/Z          J
 -----------------------------------------------------------------------------------------------
      1  C 
      2  C        1   0.000003(     1)
      3  S        1   0.000003(     2)      2  -0.000451(    21)
      4  C        1  -0.000006(     3)      2  -0.000026(    22)      3  -0.000004(    40)     0
      5  O        3   0.000093(     4)      1  -0.000227(    23)      2   0.000107(    41)     0
      6  H        2   0.000002(     5)      1   0.000008(    24)      3  -0.000008(    42)     0
      7  C        2  -0.000010(     6)      1  -0.000021(    25)      6  -0.000006(    43)     0
      8  C        4   0.000011(     7)      1  -0.000011(    26)      2  -0.000009(    44)     0
      9  H        4  -0.000002(     8)      1  -0.000006(    27)      8  -0.000003(    45)     0
     10  H        7   0.000001(     9)      2   0.000001(    28)      1  -0.000001(    46)     0
     11  C        7   0.000005(    10)      2  -0.000024(    29)     10  -0.000002(    47)     0
     12  H        8   0.000000(    11)      4   0.000001(    30)      1   0.000001(    48)     0
     13  H       11   0.000000(    12)      7  -0.000000(    31)      2   0.000001(    49)     0
     14  C        1  -0.000049(    13)      2   0.000441(    32)      3  -0.000015(    50)     0
     15  C       14   0.000085(    14)      1   0.000035(    33)      2   0.000099(    51)     0
     16  H       14   0.000005(    15)      1   0.000008(    34)     15  -0.000033(    52)     0
     17  H       14   0.000006(    16)      1  -0.000038(    35)     15   0.000008(    53)     0
     18  C       15   0.000036(    17)     14   0.000104(    36)      1   0.000019(    54)     0
     19  H       15  -0.000001(    18)     14  -0.000008(    37)     18  -0.000007(    55)     0
     20  H       18  -0.000001(    19)     15  -0.000005(    38)     14  -0.000033(    56)     0
     21  H       18   0.000000(    20)     15   0.000007(    39)     20  -0.000005(    57)     0
 -----------------------------------------------------------------------------------------------
 Internal  Forces:  Max     0.000450962 RMS     0.000094507

 GradGradGradGradGradGradGradGradGradGradGradGradGradGradGradGradGradGrad
 Berny optimization.
 Search for a saddle point.
 Step number   3 out of a maximum of   67
 All quantities printed in internal units (Hartrees-Bohrs-Radians)
 Swapping is turned off.
 Update second derivatives using D2CorN and points    2    3
 ITU=  0  0  0
     Eigenvalues ---   -0.12424   0.00722   0.01223   0.02758   0.03147
     Eigenvalues ---    0.03420   0.03532   0.03818   0.04232   0.05742
     Eigenvalues ---    0.06233   0.06614   0.08198   0.10491   0.11443
     Eigenvalues ---    0.11875   0.13383   0.15781   0.16009   0.16897
     Eigenvalues ---    0.18092   0.19035   0.20694   0.22110   0.22571
     Eigenvalues ---    0.22950   0.23264   0.23544   0.28999   0.30049
     Eigenvalues ---    0.33402   0.34226   0.34603   0.34983   0.35151
     Eigenvalues ---    0.35233   0.35676   0.36006   0.36253   0.36558
     Eigenvalues ---    0.36738   0.38207   0.39324   0.41601   0.42272
     Eigenvalues ---    0.45139   0.46927   0.48755   0.49584   0.51969
     Eigenvalues ---    0.55309   0.57259   1.37420   2.31366   2.68327
     Eigenvalues ---    3.32053  23.89663
 Eigenvectors required to have negative eigenvalues:
                          A15       D15       D5        D17       D18
   1                    0.47344   0.33908  -0.31305  -0.29935   0.27614
                          D14       R5        D21       R15       A17
   1                    0.25724   0.23963  -0.22798   0.22417   0.21822
 RFO step:  Lambda0=3.153100914D-08 Lambda=-3.77929939D-07.
 Linear search not attempted -- option 19 set.
 Variable       Old X    -DE/DX   Delta X   Delta X   Delta X     New X
                                 (Linear)    (Quad)   (Total)
    R2        2.63787   0.00000   0.00000   0.00002   0.00002   2.63788
    R3        3.36712   0.00000   0.00000   0.00013   0.00013   3.36726
    R4        2.64321  -0.00001   0.00000  -0.00004  -0.00004   2.64318
    R5        2.87429   0.00009   0.00000   0.00011   0.00011   2.87440
    R6        2.04522   0.00000   0.00000   0.00000   0.00000   2.04522
    R7        2.62540  -0.00001   0.00000  -0.00002  -0.00002   2.62538
    R8        2.62206   0.00001   0.00000   0.00003   0.00003   2.62209
    R9        2.04911  -0.00000   0.00000  -0.00001  -0.00001   2.04911
   R10        2.04862   0.00000   0.00000   0.00000   0.00000   2.04862
   R11        2.63187   0.00001   0.00000   0.00002   0.00002   2.63189
   R12        2.05024   0.00000   0.00000   0.00000   0.00000   2.05024
   R13        2.04981   0.00000   0.00000   0.00000   0.00000   2.04981
   R14        7.58738  -0.00005   0.00000   0.00079   0.00079   7.58817
   R15        2.60678   0.00008   0.00000   0.00002   0.00002   2.60680
   R16        2.04202   0.00001   0.00000   0.00001   0.00001   2.04203
   R17        2.04192   0.00001   0.00000   0.00001   0.00001   2.04194
   R18        2.60436   0.00004   0.00000   0.00010   0.00010   2.60446
   R19        2.04833  -0.00000   0.00000   0.00001   0.00001   2.04834
   R20        2.04472  -0.00000   0.00000   0.00001   0.00001   2.04473
   R21        2.04645   0.00000   0.00000  -0.00000  -0.00000   2.04645
    A3        2.11327  -0.00045   0.00000  -0.00016  -0.00016   2.11311
    A4        2.08897  -0.00003   0.00000   0.00003   0.00003   2.08900
    A5        1.84848  -0.00023   0.00000  -0.00029  -0.00029   1.84819
    A6        2.07144   0.00001   0.00000   0.00002   0.00002   2.07146
    A7        2.09192  -0.00002   0.00000  -0.00001  -0.00001   2.09191
    A8        2.09541  -0.00001   0.00000  -0.00001  -0.00001   2.09539
    A9        2.08843  -0.00001   0.00000  -0.00001  -0.00001   2.08842
   A10        2.08183   0.00000   0.00000   0.00002   0.00002   2.08184
   A11        2.10466  -0.00002   0.00000  -0.00001  -0.00001   2.10464
   A12        2.08474   0.00000   0.00000   0.00001   0.00001   2.08475
   A13        2.09877  -0.00000   0.00000  -0.00001  -0.00001   2.09875
   A14        1.44456   0.00044   0.00000   0.00047   0.00047   1.44503
   A15        1.43831   0.00003   0.00000  -0.00030  -0.00030   1.43801
   A16        2.34511   0.00001   0.00000   0.00044   0.00044   2.34555
   A17        1.14113  -0.00004   0.00000  -0.00010  -0.00010   1.14103
   A18        2.08718   0.00010   0.00000   0.00016   0.00016   2.08733
   A19        2.07296  -0.00001   0.00000  -0.00007  -0.00007   2.07289
   A20        2.11561  -0.00000   0.00000  -0.00009  -0.00009   2.11551
   A21        2.10340   0.00001   0.00000   0.00003   0.00003   2.10343
    D4        3.13116  -0.00000   0.00000  -0.00004  -0.00004   3.13112
    D5        0.08565   0.00011   0.00000  -0.00009  -0.00009   0.08555
    D6       -0.01739  -0.00001   0.00000   0.00006   0.00006  -0.01733
    D7       -3.11556  -0.00001   0.00000  -0.00001  -0.00001  -3.11558
    D8        0.00047  -0.00001   0.00000  -0.00005  -0.00005   0.00042
    D9        3.14834  -0.00000   0.00000   0.00001   0.00001   3.14835
   D10        3.13567  -0.00000   0.00000   0.00003   0.00003   3.13569
   D11       -3.13565  -0.00000   0.00000   0.00000   0.00000  -3.13565
   D12       -3.13633   0.00000   0.00000   0.00003   0.00003  -3.13630
   D13        3.13525   0.00000   0.00000  -0.00002  -0.00002   3.13523
   D14       -0.47407  -0.00002   0.00000  -0.00004  -0.00004  -0.47410
   D15       -2.68135   0.00010   0.00000   0.00007   0.00007  -2.68128
   D16       -2.21935  -0.00003   0.00000  -0.00026  -0.00026  -2.21961
   D17        2.24982   0.00001   0.00000   0.00011   0.00011   2.24993
   D18        0.52192   0.00002   0.00000  -0.00027  -0.00027   0.52165
   D19       -2.83776  -0.00001   0.00000  -0.00004  -0.00004  -2.83781
   D20       -2.97867  -0.00003   0.00000  -0.00027  -0.00027  -2.97894
   D21       -2.86691  -0.00000   0.00000   0.00052   0.00052  -2.86639
         Item               Value     Threshold  Converged?
 Maximum Force            0.000451     0.000450     NO 
 RMS     Force            0.000095     0.000300     YES
 Maximum Displacement     0.000786     0.001800     YES
 RMS     Displacement     0.000180     0.001200     YES
 Predicted change in Energy=-1.731995D-07
 GradGradGradGradGradGradGradGradGradGradGradGradGradGradGradGradGradGrad

 ---------------------------------------------------------------------------------------------------
                            Z-MATRIX (ANGSTROMS AND DEGREES)
   CD    Cent   Atom    N1       Length/X        N2       Alpha/Y        N3        Beta/Z          J
 ---------------------------------------------------------------------------------------------------
      1      1  C 
      2      2  C        1   1.395908(     1)
      3      3  S        1   1.781876(     2)      2  121.072(    21)
      4      4  C        1   1.398709(     3)      2  119.691(    22)      3  179.400(    40)      0
      5      5  O        3   1.521067(     4)      1  105.894(    23)      2    4.902(    41)      0
      6      6  H        2   1.082283(     5)      1  118.686(    24)      3   -0.993(    42)      0
      7      7  C        2   1.389292(     6)      1  119.857(    25)      6 -178.509(    43)      0
      8      8  C        4   1.387552(     7)      1  120.057(    26)      2    0.024(    44)      0
      9      9  H        4   1.084342(     8)      1  119.658(    27)      8  180.387(    45)      0
     10     10  H        7   1.084082(     9)      2  119.281(    28)      1  179.662(    46)      0
     11     11  C        7   1.392736(    10)      2  120.587(    29)     10 -179.659(    47)      0
     12     12  H        8   1.084943(    11)      4  119.447(    30)      1 -179.697(    48)      0
     13     13  H       11   1.084712(    12)      7  120.250(    31)      2  179.635(    49)      0
     14     14  C        1   4.015485(    13)      2   82.794(    32)      3  -27.164(    50)      0
     15     15  C       14   1.379460(    14)      1   82.392(    33)      2 -153.626(    51)      0
     16     16  H       14   1.080595(    15)      1  134.390(    34)     15 -127.174(    52)      0
     17     17  H       14   1.080546(    16)      1   65.376(    35)     15  128.911(    53)      0
     18     18  C       15   1.378219(    17)     14  119.595(    36)      1   29.888(    54)      0
     19     19  H       15   1.083934(    18)     14  118.768(    37)     18 -162.594(    55)      0
     20     20  H       18   1.082025(    19)     15  121.210(    38)     14 -170.681(    56)      0
     21     21  H       18   1.082932(    20)     15  120.517(    39)     20 -164.232(    57)      0
 ---------------------------------------------------------------------------------------------------
                         Z-Matrix orientation:                         
 ---------------------------------------------------------------------
 Center     Atomic      Atomic             Coordinates (Angstroms)
 Number     Number       Type             X           Y           Z
 ---------------------------------------------------------------------
      1          6           0        0.000000    0.000000    0.000000
      2          6           0        0.000000    0.000000    1.395908
      3         16           0        1.526206    0.000000   -0.919661
      4          6           0       -1.215004   -0.012724   -0.692812
      5          8           0        2.635266   -0.125004    0.113782
      6          1           0        0.949308   -0.016455    1.915409
      7          6           0       -1.204841   -0.010463    2.087559
      8          6           0       -2.413538   -0.024771    0.006239
      9          1           0       -1.214313   -0.019480   -1.777133
     10          1           0       -1.193889   -0.015949    3.171572
     11          6           0       -2.416307   -0.021033    1.400572
     12          1           0       -3.350155   -0.039583   -0.541145
     13          1           0       -3.353748   -0.035140    1.946105
     14          6           0        3.544366    1.818759    0.503697
     15          6           0        3.242564    2.346595   -0.734533
     16          1           0        4.541739    1.478010    0.742072
     17          1           0        2.859884    1.929129    1.332481
     18          6           0        1.924883    2.539967   -1.089235
     19          1           0        4.003675    2.334834   -1.506210
[...]
 .00004792,-0.00012735,-0.00394971,-0.00007990,-0.00005752,-0.03278219,
 0.00165870,-0.00019929,0.00830137,0.00003499,0.00001881,-0.00128770,0.
 00000829,0.00027092,0.02421795,0.00333152,0.00013239,0.00019880,-0.001
 67906,0.00007129,-0.01320141,-0.00048911,0.00011127,-0.00067571,0.0002
 6589,0.00001587,0.00073735,0.00007644,-0.00005778,0.00026701,0.0000317
 7,-0.00003777,0.00089571,-0.00330742,0.00143163,-0.32979771,-0.0034659
 6,-0.00002999,0.00079157,-0.00001092,-0.00000499,-0.00007171,0.0028880
 4,-0.00163525,0.35253233,-0.01209130,-0.00007907,-0.03183248,-0.060606
 02,-0.00061109,0.02604582,-0.00350280,-0.00031600,0.00326711,0.0265710
 4,0.00035096,0.02783638,0.00091570,0.00015320,0.00087482,-0.00212136,-
 0.00012771,0.00325291,-0.27278067,-0.00202761,-0.11837515,-0.12317011,
 -0.00148057,0.03018065,-0.00436734,-0.00011290,0.00316908,0.00443337,0
 .00002657,0.00275456,0.70178564,-0.00019200,-0.00226378,-0.00033338,-0
 .00055915,0.00202539,-0.00016182,-0.00001289,-0.00076093,-0.00008845,0
 .00052451,-0.00041114,0.00038587,0.00014393,0.00006257,0.00009037,0.00
 012624,0.00732121,0.00017783,-0.00285049,-0.04461843,-0.00088884,-0.00
 137634,-0.04087811,-0.00009555,-0.00018961,0.00818998,-0.00001784,0.00
 026901,-0.00062471,0.00011434,0.00760973,0.09753583,-0.03281175,-0.000
 61601,-0.04849370,-0.02224291,-0.00074553,0.06005517,0.00267344,0.0015
 6775,-0.00242266,0.07643364,0.00074058,-0.02982480,0.00109363,-0.00034
 596,0.00139559,0.00370400,0.00029784,-0.00104526,-0.05506954,0.0003880
 9,-0.17552310,-0.03227648,-0.00158668,-0.32045703,0.00196349,0.0001240
 1,0.00110725,-0.02847108,-0.00031550,-0.01191446,-0.03290519,-0.000414
 53,0.66330836,-0.00374271,-0.00024702,0.00427386,0.00012489,0.00000968
 ,0.00095628,0.00063972,-0.00017246,-0.00120149,-0.02066389,-0.00029255
 ,-0.01658366,-0.00088685,0.00007030,-0.00006610,-0.00004210,0.00001491
 ,-0.00006822,0.00193915,-0.00006700,-0.00001843,-0.25697846,-0.0035261
 5,-0.11610484,0.00113798,0.00008293,0.00025211,-0.00006834,-0.00001149
 ,0.00017049,0.00245186,0.00007491,0.00187654,0.27506992,0.00000711,0.0
 0845056,0.00007633,0.00004594,-0.00133299,-0.00002873,0.00000803,0.000
 33697,0.00001628,-0.00027978,-0.00026432,-0.00017246,0.00003144,-0.000
 31639,-0.00002688,-0.00000333,-0.00113671,-0.00002244,-0.00001958,0.00
 838239,-0.00000163,-0.00369526,-0.02877464,-0.00202893,0.00004972,-0.0
 0362933,0.00006044,-0.00001809,0.00030083,0.00000054,-0.00001774,-0.00
 213229,-0.00005359,0.00390005,0.02278755,0.00343688,0.00004406,-0.0005
 9166,0.00083643,0.00000356,-0.00059983,-0.00006380,-0.00004464,0.00054
 951,0.01416618,0.00016976,0.01099275,0.00034821,0.00000241,0.00002579,
 -0.00004618,-0.00000116,0.00007640,0.00164370,0.00000197,-0.00585712,-
 0.11650614,-0.00191912,-0.12743085,-0.00056348,0.00001644,0.00097078,-
 0.00144605,-0.00000751,-0.00070225,-0.02967388,-0.00051666,-0.01027224
 ,0.12717265,0.00216478,0.13179202,0.00033513,0.00002403,-0.00106042,-0
 .00340515,-0.00010585,-0.00459576,-0.00004241,-0.00004431,-0.00014081,
 0.00185682,-0.00015471,0.00013414,-0.00010470,0.00000844,0.00028407,-0
 .00079458,-0.00003891,0.00094853,-0.01976030,-0.00031103,0.01785984,0.
 00202344,0.00010827,-0.00195293,-0.00009443,-0.00000015,-0.00014004,0.
 00107131,0.00004242,-0.00053325,-0.25739462,-0.00347109,0.11571114,0.0
 0095268,0.00005433,0.00071082,0.27529067,0.00013419,-0.00207265,-0.000
 07633,-0.00020512,0.00833028,0.00008233,-0.00017244,-0.00034827,-0.000
 00957,-0.00026101,0.00846143,-0.00005207,0.00000741,-0.00028385,0.0001
 1054,0.00004584,0.00041240,0.00003285,0.00010891,-0.00276054,0.0002423
 0,0.00026879,-0.00361384,-0.00028492,0.00003062,0.00033076,-0.00003678
 ,0.00001606,-0.00303378,-0.00002793,-0.00375152,-0.02327424,0.00188706
 ,0.00003789,-0.00273950,0.00004375,0.00378516,0.02058355,-0.00099656,-
 0.00000298,-0.00081651,-0.00290169,0.00003786,-0.00060552,-0.00015993,
 0.00007068,0.00007783,-0.00153255,-0.00006567,-0.00576640,0.00013369,-
 0.00002994,0.00011376,-0.00058306,-0.00000992,0.00033786,-0.01391382,-
 0.00024684,0.01121257,0.02993599,0.00049677,-0.01048352,0.00142449,0.0
 0001813,-0.00063351,0.00070494,-0.00000520,0.00094169,0.11580840,0.001
 70356,-0.12632028,-0.00069331,-0.00001104,0.00110089,-0.12722226,-0.00
 191094,0.13083074,0.00170200,-0.00259506,-0.00025749,-0.00023840,0.000
 45473,-0.00032120,-0.01686351,-0.00778685,-0.01447581,-0.00048488,0.00
 028155,0.00014575,0.00410306,0.02030277,0.01106780,-0.00034759,-0.0004
 6618,0.00028377,-0.00033151,0.00021390,0.00009079,0.00038398,0.0002949
 8,-0.00004640,0.00003269,-0.00010109,0.00005218,-0.00004792,-0.0000246
 3,0.00005011,-0.00007441,-0.00006373,0.00037788,-0.00001584,-0.0000377
 0,-0.00000980,0.00000988,-0.00002966,0.00002944,0.61932893,0.00707365,
 -0.00099723,0.00113872,-0.00139794,0.00055628,0.00076543,-0.03455674,-
 0.01518106,-0.02472192,-0.00002122,0.00004601,-0.00095101,0.03823730,0
 .01667667,0.02563666,-0.00070056,-0.00001939,0.00061141,0.00055920,0.0
 0027048,-0.00018271,0.00078018,-0.00029722,0.00066237,-0.00005782,0.00
 015812,0.00006252,-0.00000075,-0.00000073,0.00004192,-0.00093411,-0.00
 009180,0.00016133,0.00007782,0.00003326,-0.00007771,-0.00000434,0.0000
 4524,0.00001735,-0.17993384,0.17116820,-0.00504228,0.00387823,0.002394
 25,0.00080988,-0.00101417,-0.00102258,0.00907969,0.00780305,0.00199818
 ,0.00178771,-0.00042356,0.00011615,-0.00882569,-0.00715831,-0.01906311
 ,0.00018135,0.00074143,-0.00024864,-0.00038537,-0.00048814,-0.00001993
 ,-0.00085372,-0.00003157,0.00079697,-0.00003893,-0.00005630,-0.0000073
 6,0.00008113,0.00005270,-0.00012227,0.00059204,0.00011116,-0.00083178,
 0.00005858,0.00003055,0.00003476,0.00001534,-0.00000087,-0.00004783,-0
 .00853733,-0.11589499,0.67729021,0.00693450,-0.00290533,-0.00196719,-0
 .00085424,0.00056316,0.00163675,-0.02642411,-0.03183245,-0.00952341,-0
 .00154280,0.00049848,-0.00050868,0.01896121,0.02203365,0.01068544,-0.0
 0035609,-0.00010395,0.00029019,0.00064848,0.00034941,-0.00036364,0.001
 02038,-0.00003544,-0.00045378,-0.00006708,0.00001752,-0.00002027,-0.00
 001432,-0.00000716,0.00009510,-0.00098681,-0.00005500,0.00077009,-0.00
 003818,-0.00002140,-0.00008463,-0.00006360,-0.00000179,0.00004422,-0.1
 2057850,0.00929525,-0.02422083,0.68521320,-0.00174266,-0.00039985,0.00
 075499,0.00003895,-0.00018337,-0.00028438,0.00095066,-0.00729385,0.008
 78404,0.00018113,-0.00026653,0.00032816,-0.02097544,-0.02776050,-0.006
 75083,0.00010483,-0.00008957,-0.00015642,-0.00016052,0.00016414,0.0000
 5583,-0.00013998,-0.00009454,-0.00002576,0.00005124,0.00009357,-0.0000
 1962,-0.00001034,-0.00001206,0.00000756,0.00015672,0.00003856,-0.00006
 108,-0.00003924,-0.00001753,0.00000852,-0.00001890,-0.00001163,0.00000
 446,0.04416568,-0.08205432,0.10309390,-0.08204910,0.20554028,0.0096879
 7,-0.00362882,-0.00371972,-0.00150151,0.00112268,0.00242162,-0.0323826
 9,-0.02381819,-0.01059594,-0.00314216,0.00055357,-0.00043625,0.0255335
 7,0.02775914,0.01697374,-0.00033505,-0.00058654,0.00029087,0.00080982,
 0.00058546,-0.00036470,0.00157303,0.00003476,-0.00098306,0.00004025,-0
 .00001482,0.00000529,-0.00007871,-0.00004659,0.00020998,-0.00155980,-0
 .00010075,0.00144533,-0.00012718,-0.00002434,-0.00011415,-0.00009907,-
 0.00004359,0.00009215,-0.05691830,0.08522631,-0.33564230,-0.04490471,-
 0.13147672,0.66069360,0.00011924,-0.00024259,0.00005017,0.00013409,0.0
 0001342,0.00000617,0.00012766,0.00004907,0.00011693,0.00002666,0.00004
 273,-0.00005323,-0.00089950,0.00004810,-0.00012838,-0.00005439,0.00004
 271,-0.00002749,-0.00006369,0.00000769,0.00000494,0.00000034,0.0000274
 4,-0.00002474,-0.00000892,-0.00001216,-0.00000071,0.00000131,0.0000025
 7,-0.00000868,0.00006940,0.00000266,0.00001003,0.00001343,-0.00000323,
 0.00000078,0.00000515,-0.00000479,-0.00000352,-0.30775439,0.09219995,-
 0.05748360,0.00081675,0.00138181,0.00154207,0.31642616,0.00060882,-0.0
 0088834,-0.00072128,0.00019367,0.00021968,0.00013056,-0.00179158,-0.00
 169697,-0.00043197,-0.00044561,0.00018241,0.00008233,-0.00542006,0.002
 07890,-0.00146958,-0.00002752,-0.00011921,-0.00001538,-0.00015786,0.00
 007281,0.00000987,0.00014060,0.00012639,-0.00027100,0.00000734,-0.0000
 6814,-0.00000110,-0.00001414,0.00000247,0.00001748,0.00003693,-0.00001
 719,0.00024770,-0.00002316,-0.00001632,-0.00000414,-0.00000783,-0.0000
 2555,0.00001222,0.09048497,-0.07022780,0.02434491,0.01299860,0.0039783
 5,-0.00007901,-0.09932438,0.06285046,0.00029565,-0.00023092,-0.0002199
 6,-0.00000284,0.00016599,-0.00000683,-0.00058624,-0.00019072,-0.000512
 55,-0.00017700,0.00003105,-0.00000260,-0.00125336,0.00039242,-0.000275
 47,0.00002987,-0.00016869,0.00006458,-0.00006819,0.00003959,0.00004607
 ,0.00008970,0.00003465,-0.00009585,0.00001186,-0.00002030,0.00001357,-
 0.00000377,-0.00000608,0.00000342,0.00001364,-0.00001104,0.00010318,0.
 00000079,0.00000180,-0.00000002,0.00000854,-0.00001165,0.00000427,-0.0
 5212274,0.02456607,-0.06914342,-0.02670623,0.00819670,-0.00172245,0.06
 082232,-0.02804499,0.06726666,-0.00017249,0.00038426,0.00003909,-0.000
 18114,-0.00011385,0.00004931,0.00141422,0.00009258,0.00063476,-0.00000
 762,-0.00007642,-0.00000100,-0.00110740,-0.00537940,-0.00489217,-0.000
 02048,-0.00018477,0.00006327,0.00006686,-0.00004919,0.00005713,0.00000
 150,-0.00000159,0.00002995,0.00000897,-0.00000971,0.00000541,0.0000079
 2,0.00001506,-0.00001542,-0.00003820,-0.00000398,-0.00004123,0.0000050
 4,-0.00000023,0.00000300,0.00001624,0.00000363,-0.00000387,-0.17439604
 ,0.03008875,0.14041639,0.00800018,-0.00166982,-0.00216829,-0.01078407,
 0.00207271,0.02136554,0.17638838,-0.00023286,0.00084964,-0.00014713,-0
 .00060515,-0.00020348,-0.00014568,0.00214407,0.00051315,0.00172309,-0.
 00011378,-0.00017219,0.00007948,-0.00278535,-0.00994965,-0.00746134,-0
 .00025719,-0.00020453,0.00013397,0.00035111,-0.00012199,0.00007326,0.0
 0005550,-0.00000882,0.00004544,0.00002693,-0.00001199,0.00001734,-0.00
 000955,0.00001659,-0.00000399,-0.00016693,-0.00000996,-0.00006030,0.00
 000386,0.00001407,0.00000722,0.00003414,0.00001585,0.00000050,0.029150
 24,-0.03373170,-0.02283935,-0.00472266,0.00331010,0.01699461,0.0054713
 8,0.00364821,-0.00640377,-0.02598965,0.03471621,-0.00002729,0.00018113
 ,-0.00008683,-0.00007275,0.00002517,-0.00010714,0.00004240,-0.00054429
 ,-0.00019049,-0.00011897,-0.00001853,-0.00002820,-0.00095396,-0.001613
 46,-0.00052354,0.00010513,0.00000841,0.00018430,0.00001601,0.00001345,
 0.00003225,0.00006128,-0.00001372,-0.00004205,0.00000391,-0.00001199,0
 .00000504,0.00001138,-0.00000753,-0.00000577,-0.00002534,0.00000319,0.
 00004989,0.00000702,0.00000789,-0.00000081,0.00001175,-0.00000347,0.00
 000007,0.13949332,-0.01585597,-0.22085505,0.02165808,-0.00334933,-0.01
 708617,-0.00458280,0.00228401,0.00766164,-0.15284490,0.01689960,0.2318
 3053,-0.00711657,-0.00123605,0.00307602,0.00112087,-0.00050276,-0.0018
 6893,0.01502279,0.01885194,0.01365563,0.00151754,-0.00070677,0.0003680
 3,-0.02584025,-0.01890147,-0.01965117,0.00026007,-0.00001944,-0.000119
 61,-0.00093598,0.00016129,0.00031005,-0.00067267,-0.00003667,0.0004457
 0,0.00001074,0.00012438,0.00004981,0.00005708,0.00000010,-0.00013715,0
 .00094225,0.00009186,-0.00055411,0.00011077,0.00000365,0.00006604,0.00
 009397,-0.00002048,-0.00005490,-0.00898484,0.04024516,-0.04164724,-0.3
 5628886,0.04270060,-0.02916566,0.00129987,0.00174777,0.00023844,-0.000
 89057,-0.00512564,0.00063309,0.66018126,-0.00827758,0.00208418,0.00368
 977,0.00144457,0.00008831,-0.00273527,0.02469812,0.01388130,0.00779352
 ,0.00355957,-0.00023155,0.00014092,-0.01378355,-0.01549054,-0.00718040
 ,0.00027632,0.00024026,-0.00029623,-0.00094937,-0.00026726,0.00057094,
 -0.00167158,-0.00000992,0.00119925,0.00004937,-0.00002037,0.00005313,0
 .00003392,0.00000724,-0.00014550,0.00158948,-0.00000608,-0.00147217,0.
 00011338,0.00005657,0.00010614,0.00007403,-0.00001480,-0.00006272,0.01
 408181,0.01131239,-0.00417196,0.07147515,-0.06153722,0.03406425,0.0021
 1706,0.00404379,0.00294921,-0.00211665,-0.00423406,-0.00116290,-0.1435
 5238,0.13087417,-0.00093038,0.00296755,0.00165174,0.00064362,0.0001429
 7,-0.00095925,0.00546288,-0.00867264,-0.00827771,0.00119890,-0.0000499
 6,-0.00007382,-0.01097449,0.00424144,-0.00569748,-0.00009350,0.0003365
 1,0.00000133,-0.00049482,-0.00032437,0.00024881,-0.00019870,-0.0003874
 1,-0.00000359,-0.00002267,0.00018661,0.00000685,0.00001986,0.00002765,
 -0.00009195,0.00082697,0.00000555,-0.00025446,0.00009476,0.00002516,0.
 00002495,0.00005248,0.00006616,-0.00003175,-0.03617528,0.01952800,-0.0
 1730008,-0.06242569,0.01519117,-0.11836397,-0.00002650,0.00489997,-0.0
 0405879,-0.00210324,-0.00183423,0.00145856,0.00891959,-0.08286795,0.64
 795207,-0.00020344,0.00013051,-0.00003288,0.00002312,-0.00004396,-0.00
 012247,-0.00030980,0.00020017,-0.00002197,0.00006809,-0.00003611,0.000
 02587,0.00043923,0.00007518,0.00042059,-0.00001411,-0.00000088,0.00002
 217,0.00002334,-0.00003441,-0.00001685,0.00001013,-0.00000794,0.000029
 20,-0.00000872,0.00000615,0.00000967,0.00000335,0.00000052,-0.00000464
 ,0.00000374,0.00000668,-0.00002529,0.00000516,0.00000369,0.00000137,0.
 00000515,0.00000548,-0.00000066,0.00916413,-0.00011792,-0.00749371,-0.
 19322809,0.00429329,0.13861208,0.00036938,-0.00122032,-0.00018618,0.00
 107352,0.00219573,-0.00214715,-0.01947334,0.00206829,0.02186495,0.2045
 0120,-0.00033857,0.00024401,0.00005164,0.00002795,-0.00013412,-0.00000
 091,0.00006118,0.00073314,0.00015957,0.00000889,-0.00004575,-0.0000315
 8,0.00038734,0.00006724,0.00000396,-0.00001099,0.00003320,0.00003638,0
 .00005884,-0.00004546,-0.00002805,-0.00001192,-0.00001380,0.00005300,-
 0.00001547,-0.00000331,0.00000196,0.00001420,0.00000058,-0.00001852,-0
 .00002597,0.00002269,-0.00004836,0.00001929,0.00000068,0.00000351,0.00
 001582,0.00000751,-0.00000924,-0.00744920,0.00402578,0.00904256,0.0087
 0241,-0.04281416,-0.00087871,-0.00136843,-0.00338085,-0.00126235,0.002
 31917,0.00499731,0.00277298,0.00389743,0.00279178,-0.00473804,-0.00779
 674,0.03078617,-0.00007310,0.00006265,0.00004441,-0.00008358,-0.000001
 50,-0.00005913,0.00047942,0.00003778,0.00001621,0.00002543,-0.00002173
 ,0.00002596,-0.00039924,-0.00014543,0.00036630,-0.00002659,-0.00004093
 ,0.00001732,0.00003686,-0.00001548,0.00001247,0.00000753,-0.00000881,0
 .00001732,0.00000082,0.00000385,0.00000386,-0.00000538,-0.00000099,0.0
 0000142,-0.00000342,0.00000215,-0.00001941,0.00000177,0.00000164,0.000
 00294,0.00000600,0.00000402,-0.00000035,0.02090601,-0.00110792,-0.0204
 1846,0.13979398,0.00238629,-0.19746934,-0.00049555,-0.00126710,0.00093
 313,-0.00094947,0.00383047,-0.00271616,-0.00812478,0.00100892,0.009642
 75,-0.14873051,-0.00537357,0.20834620,-0.00029132,-0.00016989,0.000073
 62,-0.00014711,-0.00017948,0.00004199,0.00028213,0.00121777,0.00139086
 ,0.00020364,-0.00000930,0.00005760,0.00005208,-0.00075370,-0.00018610,
 -0.00002867,0.00004591,-0.00002038,0.00024130,-0.00001436,-0.00006962,
 -0.00015661,0.00007156,0.00015767,-0.00002858,-0.00009873,-0.00004052,
 0.00000222,0.00000231,-0.00000433,-0.00009246,0.00000645,-0.00017957,-
 0.00001436,-0.00000434,0.00000438,-0.00000386,-0.00000340,-0.00000962,
 -0.00597590,0.00206721,-0.00025808,-0.00098425,0.00897486,-0.02954051,
 -0.00002412,0.00052137,-0.00144575,0.00004015,-0.00013146,-0.00020565,
 -0.07305992,0.01921798,-0.06111562,0.00110213,-0.00110159,0.00013190,0
 .07185444,0.00017648,-0.00063947,-0.00074309,-0.00025260,-0.00017617,0
 .00035585,-0.00066502,0.00048352,0.00414666,-0.00021413,0.00005009,0.0
 0019374,0.00308611,-0.00148200,0.00146767,0.00002594,-0.00004047,-0.00
 003457,0.00032972,0.00003959,-0.00015568,-0.00005234,0.00014449,0.0000
 7207,-0.00005755,-0.00014729,-0.00004459,0.00000008,-0.00000154,0.0000
 2001,-0.00033747,-0.00001418,-0.00006210,-0.00004234,-0.00000278,0.000
 00072,-0.00001620,-0.00001357,-0.00000457,-0.00007014,0.00497372,0.001
 53385,0.00093472,0.00451476,0.00110898,-0.00037974,-0.00072387,-0.0001
 5479,-0.00018049,-0.00006031,0.00037665,0.02401343,-0.05150959,0.07206
 982,-0.00087734,-0.00404667,-0.00081510,-0.02403775,0.04489576,0.00025
 711,-0.00016788,-0.00018753,-0.00009846,0.00006372,0.00015972,0.000086
 27,0.00040040,0.00077751,-0.00017641,0.00006401,-0.00009502,0.00082426
 ,-0.00088830,0.00091208,0.00002004,-0.00005679,0.00001880,0.00003525,0
 .00002744,0.00003120,0.00004952,0.00000701,-0.00000591,0.00001997,0.00
 000266,0.00004943,-0.00000503,-0.00000977,0.00001052,-0.00004875,-0.00
 000038,0.00001515,0.00000206,0.00000787,0.00000117,0.00000153,-0.00000
 585,0.00000508,-0.00229084,0.00058225,0.00076721,0.00177872,0.00161332
 ,-0.00338429,0.00010919,0.00011148,-0.00020524,0.00009523,-0.00015112,
 0.00040368,-0.06629419,0.06882484,-0.30759039,-0.00033660,-0.00075211,
 0.00065982,0.07237509,-0.07488032,0.32126529,0.00049788,-0.00055978,-0
 .00035874,0.00009255,0.00014682,-0.00001011,-0.00012201,-0.00222862,-0
 .00093392,0.00016375,0.00017926,-0.00006410,0.00030504,0.00093862,0.00
 040888,-0.00001544,0.00006485,-0.00003416,-0.00006358,-0.00000514,0.00
 003563,-0.00015308,0.00006196,0.00005448,-0.00000102,-0.00004792,-0.00
 001814,0.00000037,0.00000096,-0.00000799,0.00005312,-0.00008169,-0.000
 03676,0.00000016,-0.00000326,0.00000351,0.00000323,0.00000625,-0.00000
 542,0.00136906,-0.00289922,0.00176466,-0.02016776,0.00380624,0.0241248
 5,0.00017962,-0.00038033,-0.00032405,0.00057503,0.00070728,-0.00106457
 ,-0.18735422,0.02955207,0.13547689,-0.00355417,0.00260637,-0.00249808,
 0.00702907,-0.00138337,-0.00640397,0.20116241,0.00207747,-0.00013193,-
 0.00102072,-0.00002072,0.00053623,0.00057785,-0.00146118,-0.01245734,-
 0.00624485,-0.00082935,0.00041192,-0.00018940,0.00206852,0.00239234,0.
 00355046,0.00003490,-0.00015154,0.00005630,-0.00024244,-0.00000012,0.0
 0010662,0.00022606,-0.00003696,-0.00038512,0.00001842,-0.00004327,-0.0
 0000662,-0.00001281,-0.00000212,-0.00000258,0.00006511,-0.00009340,0.0
 0036745,0.00001639,-0.00000005,-0.00000191,0.00002671,0.00000517,-0.00
 000246,-0.00087253,-0.00666490,0.00144688,-0.00513406,0.00489538,-0.00
 675170,-0.00007126,-0.00003923,0.00012784,0.00079959,0.00062754,0.0000
 0872,0.03826405,-0.03205859,-0.02081397,0.00114994,0.00677403,0.001460
 82,-0.00562141,0.00375599,0.00520753,-0.03048137,0.03228084,0.00008627
 ,0.00055299,0.00023395,-0.00023391,-0.00018512,0.00039190,0.00001379,-
 0.00008474,-0.00019797,-0.00024024,0.00006582,-0.00009703,0.00009538,-
 0.00002894,0.00024240,0.00000915,0.00006747,-0.00002295,0.00031434,-0.
 00002606,-0.00006499,-0.00008947,0.00001607,0.00010357,-0.00000197,-0.
 00005459,-0.00004985,0.00000859,0.00000431,-0.00000655,-0.00019837,0.0
 0003524,-0.00010073,-0.00000368,-0.00002322,-0.00000304,0.00000035,-0.
 00000504,-0.00001124,-0.00134188,-0.00020810,0.00132506,-0.00557352,0.
 00169920,0.00774979,0.00017257,0.00016504,0.00014667,0.00026049,-0.000
 75808,0.00001625,0.13985533,-0.02030579,-0.19828380,-0.00186698,0.0010
 1587,0.00059273,0.01884264,-0.00445122,-0.01360827,-0.15010888,0.02250
 887,0.20164411\\-0.00052275,-0.00428447,0.00000075,0.00051807,0.001158
 74,0.,-0.00000098,0.00311922,-0.00000090,-0.00000014,0.00000025,0.0000
 0015,0.00000449,0.00000370,-0.00000295,-0.00000006,0.,0.00000025,0.000
 00027,-0.00000009,0.00000001,-0.00000022,0.00000004,0.00000019,0.00000
 006,-0.00000006,0.00000002,0.00000001,0.,0.00000004,-0.00000009,0.0000
 0002,-0.00000020,-0.00000003,0.,0.,0.,0.,0.,0.00000034,0.00000015,0.00
 000498,-0.00000487,-0.00000143,-0.00000380,-0.00000025,0.00000004,0.00
 000134,0.00000177,0.00000203,0.00000066,0.00000470,0.00000260,-0.00000
 036,0.00000006,0.00000015,-0.00000001,0.00000006,0.00000029,0.00000015
 ,-0.00000044,-0.00000117,-0.00000034\\\@


 In the beginning the Universe was created.
 This has made a lot of people very angry
 and been widely regarded as a bad move.
                               -D.Adams
 Job cpu time:       0 days  3 hours 23 minutes 56.5 seconds.
 Elapsed time:       0 days  0 hours 17 minutes 41.5 seconds.
 File lengths (MBytes):  RWF=    290 Int=      0 D2E=      0 Chk=     32 Scr=      1
 Normal termination of Gaussian 16 at Fri Jun 10 14:37:09 2022.
