 Entering Gaussian System, Link 0=g16
 Input=int_zmat_field_N25.gjf
 Output=int_zmat_field_N25.out
 Initial command:
 /software/gaussian/g16-a03/l1.exe "/local_scratch/11171757/Gau-14373.inp" -scrdir="/local_scratch/11171757/"
 Entering Link 1 = /software/gaussian/g16-a03/l1.exe PID=     14374.
  
 Copyright (c) 1988,1990,1992,1993,1995,1998,2003,2009,2016,
            Gaussian, Inc.  All Rights Reserved.
  
 This is part of the Gaussian(R) 16 program.  It is based on
 the Gaussian(R) 09 system (copyright 2009, Gaussian, Inc.),
 the Gaussian(R) 03 system (copyright 2003, Gaussian, Inc.),
 the Gaussian(R) 98 system (copyright 1998, Gaussian, Inc.),
 the Gaussian(R) 94 system (copyright 1995, Gaussian, Inc.),
 the Gaussian 92(TM) system (copyright 1992, Gaussian, Inc.),
 the Gaussian 90(TM) system (copyright 1990, Gaussian, Inc.),
 the Gaussian 88(TM) system (copyright 1988, Gaussian, Inc.),
 the Gaussian 86(TM) system (copyright 1986, Carnegie Mellon
 University), and the Gaussian 82(TM) system (copyright 1983,
 Carnegie Mellon University). Gaussian is a federally registered
 trademark of Gaussian, Inc.
  
 This software contains proprietary and confidential information,
 including trade secrets, belonging to Gaussian, Inc.
  
 This software is provided under written license and may be
 used, copied, transmitted, or stored only in accord with that
 written license.
  
 The following legend is applicable only to US Government
 contracts under FAR:
  
                    RESTRICTED RIGHTS LEGEND
  
 Use, reproduction and disclosure by the US Government is
 subject to restrictions as set forth in subparagraphs (a)
 and (c) of the Commercial Computer Software - Restricted
 Rights clause in FAR 52.227-19.
  
 Gaussian, Inc.
 340 Quinnipiac St., Bldg. 40, Wallingford CT 06492
  
  
 ---------------------------------------------------------------
 Warning -- This program may not be used in any manner that
 competes with the business of Gaussian, Inc. or will provide
 assistance to any competitor of Gaussian, Inc.  The licensee
 of this program is prohibited from giving any competitor of
 Gaussian, Inc. access to this program.  By using this program,
 the user acknowledges that Gaussian, Inc. is engaged in the
 business of creating and licensing software in the field of
 computational chemistry and represents and warrants to the
 licensee that it is not a competitor of Gaussian, Inc. and that
 it will not use this program in any manner prohibited above.
 ---------------------------------------------------------------
  

 Cite this work as:
 Gaussian 16, Revision A.03,
 M. J. Frisch, G. W. Trucks, H. B. Schlegel, G. E. Scuseria, 
 M. A. Robb, J. R. Cheeseman, G. Scalmani, V. Barone, 
 G. A. Petersson, H. Nakatsuji, X. Li, M. Caricato, A. V. Marenich, 
 J. Bloino, B. G. Janesko, R. Gomperts, B. Mennucci, H. P. Hratchian, 
 J. V. Ortiz, A. F. Izmaylov, J. L. Sonnenberg, D. Williams-Young, 
 F. Ding, F. Lipparini, F. Egidi, J. Goings, B. Peng, A. Petrone, 
 T. Henderson, D. Ranasinghe, V. G. Zakrzewski, J. Gao, N. Rega, 
 G. Zheng, W. Liang, M. Hada, M. Ehara, K. Toyota, R. Fukuda, 
 J. Hasegawa, M. Ishida, T. Nakajima, Y. Honda, O. Kitao, H. Nakai, 
 T. Vreven, K. Throssell, J. A. Montgomery, Jr., J. E. Peralta, 
 F. Ogliaro, M. J. Bearpark, J. J. Heyd, E. N. Brothers, K. N. Kudin, 
 V. N. Staroverov, T. A. Keith, R. Kobayashi, J. Normand, 
 K. Raghavachari, A. P. Rendell, J. C. Burant, S. S. Iyengar, 
 J. Tomasi, M. Cossi, J. M. Millam, M. Klene, C. Adamo, R. Cammi, 
 J. W. Ochterski, R. L. Martin, K. Morokuma, O. Farkas, 
 J. B. Foresman, and D. J. Fox, Gaussian, Inc., Wallingford CT, 2016.
 
 ******************************************
 Gaussian 16:  ES64L-G16RevA.03 25-Dec-2016
                10-Jun-2022 
 ******************************************
 %nprocshared=12
 Will use up to   12 processors via shared memory.
 %chk=checkpoint.chk
 %mem=12GB
 ----------------------------------------------------------------------
 # Opt=(Z-matrix, MaxStep=10) B3LYP/Def2TZVP Field=read NoSymm freq=nor
 aman pop=none
 ----------------------------------------------------------------------
 1/8=10,10=7,18=40,26=3,38=1/1,3;
 2/12=2,15=1,17=6,18=5,29=3,40=1/2;
 3/5=44,7=101,11=2,14=-6,25=1,30=1,71=1,74=-5/1,2,3;
 4//1;
 5/5=2,38=5/2;
 7/29=1,30=1/1,2,3,16;
 1/8=10,10=7,18=40,26=3/3(2);
 2/15=1,29=3/2;
 99//99;
 2/15=1,29=3/2;
 3/5=44,7=101,11=2,14=-2,25=1,30=1,71=1,74=-5/1,2,3;
 4/5=5,16=3,69=1/1;
 5/5=2,38=5/2;
 7/30=1/1,2,3,16;
 1/8=10,18=40,26=3/3(-5);
 2/15=1,29=3/2;
 99/9=1/99;
 ------------------
 int_zmat_initalOpt
 ------------------
 Symbolic Z-matrix:
 Charge =  0 Multiplicity = 1
 C
 C                    1    R2
 C                    1    R3       2    A3
 C                    1    R4       2    A4       3    D4       0
 H                    1    R5       2    A5       3    D5       0
 H                    3    R6       1    A6       2    D6       0
 H                    3    R7       1    A7       6    D7       0
 H                    4    R8       1    A8       2    D8       0
 H                    4    R9       1    A9       8    D9       0
 C                    2    R10      1    A10      3    D10      0
 H                    2    R11      1    A11      10   D11      0
 H                    10   R12      2    A12      1    D12      0
 H                    10   R13      2    A13      12   D13      0
       Variables:
  R2                    1.48256                  
  R3                    1.51567                  
  R4                    1.50106                  
  R5                    1.08551                  
  R6                    1.0819                   
  R7                    1.082                    
  R8                    1.08125                  
  R9                    1.08179                  
  R10                   1.3285                   
  R11                   1.0878                   
  R12                   1.08331                  
  R13                   1.08241                  
  A3                  120.40571                  
  A4                  122.87219                  
  A5                  113.61879                  
  A6                  117.06943                  
  A7                  118.19647                  
  A8                  118.32609                  
  A9                  117.82575                  
  A10                 126.72847                  
  A11                 114.76084                  
  A12                 122.11774                  
  A13                 121.19383                  
  D4                   71.62806                  
  D5                 -140.6969                   
  D6                    5.19144                  
  D7                 -143.91262                  
  D8                   -1.32635                  
  D9                  144.05929                  
  D10                 -87.85234                  
  D11                 179.58993                  
  D12                  -1.46414                  
  D13                -179.80811                  
 

 GradGradGradGradGradGradGradGradGradGradGradGradGradGradGradGradGradGrad
 Berny optimization.
 Initialization pass.
                       ----------------------------
                       !    Initial Parameters    !
                       ! (Angstroms and Degrees)  !
 ----------------------                            ----------------------
 !      Name          Value   Derivative information (Atomic Units)     !
 ------------------------------------------------------------------------
 !       R2          1.4826   estimate D2E/DX2                          !
 !       R3          1.5157   estimate D2E/DX2                          !
 !       R4          1.5011   estimate D2E/DX2                          !
 !       R5          1.0855   estimate D2E/DX2                          !
 !       R6          1.0819   estimate D2E/DX2                          !
 !       R7          1.082    estimate D2E/DX2                          !
 !       R8          1.0813   estimate D2E/DX2                          !
 !       R9          1.0818   estimate D2E/DX2                          !
 !       R10         1.3285   estimate D2E/DX2                          !
 !       R11         1.0878   estimate D2E/DX2                          !
 !       R12         1.0833   estimate D2E/DX2                          !
 !       R13         1.0824   estimate D2E/DX2                          !
 !       A3        120.4057   estimate D2E/DX2                          !
 !       A4        122.8722   estimate D2E/DX2                          !
 !       A5        113.6188   estimate D2E/DX2                          !
 !       A6        117.0694   estimate D2E/DX2                          !
 !       A7        118.1965   estimate D2E/DX2                          !
 !       A8        118.3261   estimate D2E/DX2                          !
 !       A9        117.8258   estimate D2E/DX2                          !
 !       A10       126.7285   estimate D2E/DX2                          !
 !       A11       114.7608   estimate D2E/DX2                          !
 !       A12       122.1177   estimate D2E/DX2                          !
 !       A13       121.1938   estimate D2E/DX2                          !
 !       D4         71.6281   estimate D2E/DX2                          !
 !       D5       -140.6969   estimate D2E/DX2                          !
 !       D6          5.1914   estimate D2E/DX2                          !
 !       D7       -143.9126   estimate D2E/DX2                          !
 !       D8         -1.3263   estimate D2E/DX2                          !
 !       D9        144.0593   estimate D2E/DX2                          !
 !       D10       -87.8523   estimate D2E/DX2                          !
 !       D11       179.5899   estimate D2E/DX2                          !
 !       D12        -1.4641   estimate D2E/DX2                          !
 !       D13      -179.8081   estimate D2E/DX2                          !
 ------------------------------------------------------------------------
 Trust Radius=1.00D-01 FncErr=1.00D-07 GrdErr=1.00D-06 EigMax=2.50D+02 EigMin=1.00D-04
 Number of steps in this run=     43 maximum allowed number of steps=    100.
 GradGradGradGradGradGradGradGradGradGradGradGradGradGradGradGradGradGrad

 ---------------------------------------------------------------------------------------------------
                            Z-MATRIX (ANGSTROMS AND DEGREES)
   CD    Cent   Atom    N1       Length/X        N2       Alpha/Y        N3        Beta/Z          J
 ---------------------------------------------------------------------------------------------------
      1      1  C 
      2      2  C        1   1.482558(     1)
      3      3  C        1   1.515673(     2)      2  120.406(    13)
      4      4  C        1   1.501055(     3)      2  122.872(    14)      3   71.628(    24)      0
      5      5  H        1   1.085507(     4)      2  113.619(    15)      3 -140.697(    25)      0
      6      6  H        3   1.081899(     5)      1  117.069(    16)      2    5.191(    26)      0
      7      7  H        3   1.082000(     6)      1  118.196(    17)      6 -143.913(    27)      0
      8      8  H        4   1.081252(     7)      1  118.326(    18)      2   -1.326(    28)      0
      9      9  H        4   1.081793(     8)      1  117.826(    19)      8  144.059(    29)      0
     10     10  C        2   1.328495(     9)      1  126.728(    20)      3  -87.852(    30)      0
     11     11  H        2   1.087804(    10)      1  114.761(    21)     10  179.590(    31)      0
     12     12  H       10   1.083309(    11)      2  122.118(    22)      1   -1.464(    32)      0
     13     13  H       10   1.082407(    12)      2  121.194(    23)     12 -179.808(    33)      0
 ---------------------------------------------------------------------------------------------------
                         Z-Matrix orientation:                         
 ---------------------------------------------------------------------
 Center     Atomic      Atomic             Coordinates (Angstroms)
 Number     Number       Type             X           Y           Z
 ---------------------------------------------------------------------
      1          6           0        0.000000    0.000000    0.000000
      2          6           0        0.000000    0.000000    1.482558
      3          6           0        1.307212    0.000000   -0.767112
      4          6           0        0.397357   -1.196454   -0.814723
      5          1           0       -0.769609    0.629987   -0.434908
      6          1           0        2.217423   -0.087171   -0.188821
      7          1           0        1.385433    0.629114   -1.643936
      8          1           0        0.716856   -2.088578   -0.294012
      9          1           0       -0.149007   -1.389356   -1.728261
     10          6           0        0.039902   -1.064012    2.277029
     11          1           0       -0.029952    0.987341    1.938164
     12          1           0        0.054329   -2.074313    1.886333
     13          1           0        0.056538   -0.959056    3.354207
 ---------------------------------------------------------------------
                    Distance matrix (angstroms):
                    1          2          3          4          5
     1  C    0.000000
     2  C    1.482558   0.000000
     3  C    1.515673   2.601887   0.000000
     4  C    1.501055   2.620476   1.503863   0.000000
     5  H    1.085507   2.160059   2.195547   2.200444   0.000000
     6  H    2.227155   2.778142   1.081899   2.221465   3.081758
     7  H    2.240030   3.477093   1.082000   2.235304   2.471023
     8  H    2.227663   2.834120   2.221374   1.081252   3.101616
     9  H    2.222476   3.501696   2.230402   1.081793   2.477026
    10  C    2.513678   1.328495   3.464822   3.115164   3.298415
    11  H    2.175367   1.087804   3.175117   3.539766   2.511228
    12  H    2.804278   2.113944   3.593502   2.860770   3.657905
    13  H    3.489081   2.103819   4.412396   4.189569   4.191058
                    6          7          8          9         10
     6  H    0.000000
     7  H    1.822809   0.000000
     8  H    2.503677   3.107272   0.000000
     9  H    3.108948   2.536896   1.815406   0.000000
    10  C    3.431652   4.477845   2.849254   4.022920   0.000000
    11  H    3.275567   3.868215   3.873191   4.370989   2.080327
    12  H    3.596383   4.641460   2.278826   3.684535   1.083309
    13  H    4.240596   5.410146   3.875737   5.104791   1.082407
                   11         12         13
    11  H    0.000000
    12  H    3.063252   0.000000
    13  H    2.408551   1.843490   0.000000
 Symmetry turned off by external request.
 Stoichiometry    C5H8
 Framework group  C1[X(C5H8)]
 Deg. of freedom    33
 Full point group                 C1      NOp   1
 Rotational constants (GHZ):          11.7053001           3.6577461           3.3006290
 Standard basis: def2TZVP (5D, 7F)
 The following finite field(s) will be applied:
 An electric field of              0.0012 -0.0006  0.0021
   203 basis functions,   319 primitive gaussians,   228 cartesian basis functions
    19 alpha electrons       19 beta electrons
       nuclear repulsion energy       165.0281160633 Hartrees.
 NAtoms=   13 NActive=   13 NUniq=   13 SFac= 1.00D+00 NAtFMM=   60 NAOKFM=F Big=F
 Integral buffers will be    131072 words long.
 Raffenetti 2 integral format.
 Two-electron integral symmetry is turned off.
 One-electron integrals computed using PRISM.
   1 Symmetry operations used in ECPInt.
 ECPInt:  NShTT=    3828 NPrTT=   11160 LenC2=    3810 LenP2D=    9471.
 LDataN:  DoStor=T MaxTD1= 6 Len=  172
 NBasis=   203 RedAO= T EigKep=  1.51D-04  NBF=   203
 NBsUse=   203 1.00D-06 EigRej= -1.00D+00 NBFU=   203
 The nuclear repulsion energy is now       165.1445088348 hartrees.
 ExpMin= 9.52D-02 ExpMax= 1.36D+04 ExpMxC= 4.63D+02 IAcc=3 IRadAn=         5 AccDes= 0.00D+00
 Harris functional with IExCor=  402 and IRadAn=       5 diagonalized for initial guess.
 HarFok:  IExCor=  402 AccDes= 0.00D+00 IRadAn=         5 IDoV= 1 UseB2=F ITyADJ=14
 ICtDFT=  3500011 ScaDFX=  1.000000  1.000000  1.000000  1.000000
 FoFCou: FMM=F IPFlag=           0 FMFlag=      100000 FMFlg1=           0
         NFxFlg=           0 DoJE=T BraDBF=F KetDBF=T FulRan=T
         wScrn=  0.000000 ICntrl=       500 IOpCl=  0 I1Cent=   200000004 NGrid=           0
         NMat0=    1 NMatS0=      1 NMatT0=    0 NMatD0=    1 NMtDS0=    0 NMtDT0=    0
 Symmetry not used in FoFCou.
 Requested convergence on RMS density matrix=1.00D-08 within 128 cycles.
 Requested convergence on MAX density matrix=1.00D-06.
 Requested convergence on             energy=1.00D-06.
 No special actions if energy rises.
 Integral accuracy reduced to 1.0D-05 until final iterations.
 Initial convergence to 1.0D-05 achieved.  Increase integral accuracy.
 SCF Done:  E(RB3LYP) =  -195.367867101     A.U. after   13 cycles
            NFock= 13  Conv=0.44D-08     -V/T= 2.0056
   1 Symmetry operations used in ECPInt.
 ECPInt:  NShTT=    3828 NPrTT=   11160 LenC2=    3810 LenP2D=    9471.
 LDataN:  DoStor=T MaxTD1= 7 Len=  274
 Calling FoFJK, ICntrl=      2127 FMM=F ISym2X=0 I1Cent= 0 IOpClX= 0 NMat=1 NMatS=1 NMatT=0.
 -------------------------------------------------------------------
 Center     Atomic                   Forces (Hartrees/Bohr)
 Number     Number              X              Y              Z
 -------------------------------------------------------------------
      1        6          -0.000528494    0.000047752    0.000150766
      2        6           0.000296663    0.000194545   -0.000852246
      3        6           0.000001706   -0.000084511   -0.000206854
      4        6           0.000001468    0.000182271   -0.000097826
      5        1           0.000167132   -0.000059462    0.000148674
      6        1           0.000113348   -0.000021962    0.000075949
      7        1          -0.000074495   -0.000067636    0.000165566
      8        1           0.000028991   -0.000074501    0.000024655
      9        1           0.000065899    0.000100411    0.000166305
     10        6           0.000428185   -0.000407265    0.000255949
     11        1          -0.000197274    0.000063729    0.000016528
     12        1          -0.000150983    0.000025436   -0.000101648
     13        1          -0.000152147    0.000101194    0.000254181
 -------------------------------------------------------------------
 Cartesian Forces:  Max     0.000852246 RMS     0.000226356
 -----------------------------------------------------------------------------------------------
                       Internal Coordinate Forces (Hartree/Bohr or radian)
  Cent   Atom   N1       Length/X         N2         Alpha/Y        N3         Beta/Z          J
 -----------------------------------------------------------------------------------------------
      1  C 
      2  C        1  -0.000427(     1)
      3  C        1   0.000017(     2)      2  -0.000052(    13)
      4  C        1  -0.000191(     3)      2   0.000195(    14)      3  -0.000298(    24)     0
      5  H        1  -0.000213(     4)      2  -0.000142(    15)      3   0.000112(    25)     0
      6  H        3   0.000138(     5)      1  -0.000008(    16)      2   0.000053(    26)     0
      7  H        3  -0.000179(     6)      1  -0.000147(    17)      6   0.000033(    27)     0
      8  H        4   0.000082(     7)      1   0.000034(    18)      2   0.000022(    28)     0
      9  H        4  -0.000192(     8)      1  -0.000147(    19)      8   0.000027(    29)     0
     10  C        2   0.000473(     9)      1   0.000344(    20)      3   0.000341(    30)     0
     11  H        2   0.000070(    10)      1  -0.000029(    21)     10   0.000364(    31)     0
     12  H       10   0.000011(    11)      2  -0.000221(    22)      1   0.000013(    32)     0
     13  H       10   0.000260(    12)      2  -0.000164(    23)     12   0.000270(    33)     0
 -----------------------------------------------------------------------------------------------
 Internal  Forces:  Max     0.000472803 RMS     0.000204825

 GradGradGradGradGradGradGradGradGradGradGradGradGradGradGradGradGradGrad
 Berny optimization.
 Search for a local minimum.
 Step number   1 out of a maximum of   43
 All quantities printed in internal units (Hartrees-Bohrs-Radians)
 Second derivative matrix not updated -- first step.
 ITU=  0
     Eigenvalues ---    0.02944   0.04143   0.05219   0.06249   0.08149
     Eigenvalues ---    0.10783   0.14208   0.15246   0.17015   0.19036
     Eigenvalues ---    0.19913   0.21655   0.22484   0.32835   0.34278
     Eigenvalues ---    0.35068   0.35337   0.35597   0.35705   0.35754
     Eigenvalues ---    0.35766   0.35779   0.35843   0.39327   0.43406
     Eigenvalues ---    0.47345   0.47949   0.48670   0.51814   0.59863
     Eigenvalues ---    0.67492   1.26928   2.37704
 RFO step:  Lambda=-6.64421488D-06 EMin= 2.94447406D-02
 Linear search not attempted -- first point.
 Variable       Old X    -DE/DX   Delta X   Delta X   Delta X     New X
                                 (Linear)    (Quad)   (Total)
    R2        2.80163  -0.00043   0.00000  -0.00125  -0.00125   2.80038
    R3        2.86421   0.00002   0.00000   0.00024   0.00024   2.86445
    R4        2.83658  -0.00019   0.00000  -0.00024  -0.00024   2.83635
    R5        2.05131  -0.00021   0.00000  -0.00060  -0.00060   2.05071
    R6        2.04449   0.00014   0.00000   0.00038   0.00038   2.04488
    R7        2.04468  -0.00018   0.00000  -0.00050  -0.00050   2.04418
    R8        2.04327   0.00008   0.00000   0.00023   0.00023   2.04350
    R9        2.04429  -0.00019   0.00000  -0.00054  -0.00054   2.04376
   R10        2.51049   0.00047   0.00000   0.00079   0.00079   2.51128
   R11        2.05565   0.00007   0.00000   0.00020   0.00020   2.05585
   R12        2.04716   0.00001   0.00000   0.00003   0.00003   2.04719
   R13        2.04545   0.00026   0.00000   0.00073   0.00073   2.04618
    A3        2.10148  -0.00005   0.00000  -0.00069  -0.00069   2.10078
    A4        2.14452   0.00020   0.00000   0.00037   0.00037   2.14489
    A5        1.98302  -0.00014   0.00000  -0.00023  -0.00023   1.98279
    A6        2.04325  -0.00001   0.00000   0.00022   0.00022   2.04347
    A7        2.06292  -0.00015   0.00000  -0.00066  -0.00066   2.06226
    A8        2.06518   0.00003   0.00000   0.00036   0.00036   2.06554
    A9        2.05645  -0.00015   0.00000  -0.00068  -0.00068   2.05577
   A10        2.21183   0.00034   0.00000   0.00117   0.00117   2.21300
   A11        2.00295  -0.00003   0.00000  -0.00068  -0.00068   2.00228
   A12        2.13136  -0.00022   0.00000  -0.00054  -0.00054   2.13081
   A13        2.11523  -0.00016   0.00000  -0.00029  -0.00029   2.11494
    D4        1.25015  -0.00030   0.00000  -0.00046  -0.00046   1.24968
    D5       -2.45562   0.00011   0.00000   0.00025   0.00025  -2.45537
    D6        0.09061   0.00005   0.00000   0.00083   0.00083   0.09144
    D7       -2.51175   0.00003   0.00000   0.00029   0.00029  -2.51146
    D8       -0.02315   0.00002   0.00000   0.00103   0.00103  -0.02212
    D9        2.51431   0.00003   0.00000  -0.00019  -0.00019   2.51412
   D10       -1.53331   0.00034   0.00000   0.00571   0.00571  -1.52760
   D11        3.13444   0.00036   0.00000   0.00223   0.00223   3.13667
   D12       -0.02555   0.00001   0.00000  -0.00052  -0.00052  -0.02608
   D13       -3.13824   0.00027   0.00000   0.00432   0.00432  -3.13392
         Item               Value     Threshold  Converged?
 Maximum Force            0.000473     0.000450     NO 
 RMS     Force            0.000205     0.000300     YES
 Maximum Displacement     0.005710     0.001800     NO 
 RMS     Displacement     0.001421     0.001200     NO 
 Predicted change in Energy=-3.322107D-06
 GradGradGradGradGradGradGradGradGradGradGradGradGradGradGradGradGradGrad

 ---------------------------------------------------------------------------------------------------
                            Z-MATRIX (ANGSTROMS AND DEGREES)
   CD    Cent   Atom    N1       Length/X        N2       Alpha/Y        N3        Beta/Z          J
 ---------------------------------------------------------------------------------------------------
      1      1  C 
      2      2  C        1   1.481898(     1)
      3      3  C        1   1.515799(     2)      2  120.366(    13)
      4      4  C        1   1.500929(     3)      2  122.893(    14)      3   71.602(    24)      0
      5      5  H        1   1.085189(     4)      2  113.606(    15)      3 -140.682(    25)      0
      6      6  H        3   1.082102(     5)      1  117.082(    16)      2    5.239(    26)      0
      7      7  H        3   1.081735(     6)      1  118.159(    17)      6 -143.896(    27)      0
      8      8  H        4   1.081373(     7)      1  118.347(    18)      2   -1.267(    28)      0
      9      9  H        4   1.081510(     8)      1  117.787(    19)      8  144.049(    29)      0
     10     10  C        2   1.328912(     9)      1  126.796(    20)      3  -87.525(    30)      0
     11     11  H        2   1.087910(    10)      1  114.722(    21)     10  179.718(    31)      0
     12     12  H       10   1.083324(    11)      2  122.087(    22)      1   -1.494(    32)      0
     13     13  H       10   1.082793(    12)      2  121.177(    23)     12 -179.560(    33)      0
 ---------------------------------------------------------------------------------------------------
                         Z-Matrix orientation:                         
 ---------------------------------------------------------------------
 Center     Atomic      Atomic             Coordinates (Angstroms)
 Number     Number       Type             X           Y           Z
 ---------------------------------------------------------------------
      1          6           0        0.000000    0.000000    0.000000
      2          6           0        0.000000    0.000000    1.481898
      3          6           0        1.307852    0.000000   -0.766271
      4          6           0        0.397779   -1.195884   -0.815121
      5          1           0       -0.769301    0.630059   -0.434553
      6          1           0        2.217925   -0.087974   -0.187504
      7          1           0        1.386344    0.629982   -1.642121
      8          1           0        0.716912   -2.088646   -0.295028
      9          1           0       -0.148346   -1.387619   -1.728713
     10          6           0        0.045951   -1.063170    2.277866
     11          1           0       -0.037807    0.987478    1.936878
     12          1           0        0.065668   -2.073645    1.887809
     13          1           0        0.058411   -0.956623    3.355332
 ---------------------------------------------------------------------
                    Distance matrix (angstroms):
                    1          2          3          4          5
     1  C    0.000000
     2  C    1.481898   0.000000
     3  C    1.515799   2.600912   0.000000
     4  C    1.500929   2.620050   1.503581   0.000000
     5  H    1.085189   2.159070   2.195809   2.200222   0.000000
     6  H    2.227575   2.777379   1.082102   2.221328   3.082228
     7  H    2.239506   3.475388   1.081735   2.234944   2.470835
     8  H    2.227879   2.834409   2.221198   1.081373   3.101557
     9  H    2.221698   3.500788   2.229864   1.081510   2.476178
    10  C    2.514183   1.328912   3.462585   3.115761   3.299830
    11  H    2.174405   1.087910   3.176936   3.539817   2.507293
    12  H    2.805021   2.114020   3.589870   2.861223   3.660677
    13  H    3.489526   2.104351   4.411784   4.191073   4.191169
                    6          7          8          9         10
     6  H    0.000000
     7  H    1.822882   0.000000
     8  H    2.503456   3.107046   0.000000
     9  H    3.108640   2.536431   1.815368   0.000000
    10  C    3.427321   4.475456   2.849837   4.024387   0.000000
    11  H    3.279927   3.868493   3.874731   4.369194   2.080492
    12  H    3.589154   4.638339   2.277964   3.687230   1.083324
    13  H    4.239073   5.408812   3.878173   5.106468   1.082793
                   11         12         13
    11  H    0.000000
    12  H    3.063264   0.000000
    13  H    2.408485   1.844292   0.000000
 Symmetry turned off by external request.
 Stoichiometry    C5H8
 Framework group  C1[X(C5H8)]
 Deg. of freedom    33
 Full point group                 C1      NOp   1
 Rotational constants (GHZ):          11.7001689           3.6581032           3.3028779
 Standard basis: def2TZVP (5D, 7F)
 The following finite field(s) will be applied:
 An electric field of              0.0012 -0.0006  0.0021
   203 basis functions,   319 primitive gaussians,   228 cartesian basis functions
    19 alpha electrons       19 beta electrons
       nuclear repulsion energy       165.0399078832 Hartrees.
 NAtoms=   13 NActive=   13 NUniq=   13 SFac= 1.00D+00 NAtFMM=   60 NAOKFM=F Big=F
 Integral buffers will be    131072 words long.
 Raffenetti 2 integral format.
 Two-electron integral symmetry is turned off.
 One-electron integrals computed using PRISM.
   1 Symmetry operations used in ECPInt.
 ECPInt:  NShTT=    3828 NPrTT=   11160 LenC2=    3810 LenP2D=    9471.
 LDataN:  DoStor=T MaxTD1= 6 Len=  172
 NBasis=   203 RedAO= T EigKep=  1.51D-04  NBF=   203
 NBsUse=   203 1.00D-06 EigRej= -1.00D+00 NBFU=   203
 The nuclear repulsion energy is now       165.1564249611 hartrees.
 Initial guess from the checkpoint file:  "checkpoint.chk"
 B after Tr=     0.000748   -0.000590    0.000476
         Rot=    1.000000    0.000165   -0.000303   -0.000720 Ang=   0.09 deg.
 Requested convergence on RMS density matrix=1.00D-08 within 128 cycles.
 Requested convergence on MAX density matrix=1.00D-06.
 Requested convergence on             energy=1.00D-06.
 No special actions if energy rises.
 SCF Done:  E(RB3LYP) =  -195.367871771     A.U. after    8 cycles
            NFock=  8  Conv=0.36D-08     -V/T= 2.0056
   1 Symmetry operations used in ECPInt.
 ECPInt:  NShTT=    3828 NPrTT=   11160 LenC2=    3810 LenP2D=    9471.
 LDataN:  DoStor=T MaxTD1= 7 Len=  274
 Calling FoFJK, ICntrl=      2127 FMM=F ISym2X=0 I1Cent= 0 IOpClX= 0 NMat=1 NMatS=1 NMatT=0.
 -------------------------------------------------------------------
 Center     Atomic                   Forces (Hartrees/Bohr)
 Number     Number              X              Y              Z
 -------------------------------------------------------------------
      1        6          -0.000232947   -0.000110158    0.000137680
      2        6           0.000085633    0.000011509   -0.000175875
      3        6           0.000099947   -0.000062949   -0.000128690
      4        6           0.000076747    0.000046747    0.000026940
      5        1           0.000070305    0.000059904    0.000034074
      6        1          -0.000034245    0.000030445    0.000029406
      7        1          -0.000013277   -0.000001421   -0.000009440
      8        1          -0.000018614   -0.000010612   -0.000007537
      9        1          -0.000013226    0.000029766   -0.000000695
     10        6           0.000194841   -0.000039950    0.000131475
     11        1          -0.000118415    0.000000002    0.000019536
     12        1          -0.000078964    0.000011316   -0.000023848
     13        1          -0.000017786    0.000035401   -0.000033027
 -------------------------------------------------------------------
 Cartesian Forces:  Max     0.000232947 RMS     0.000081399
 -----------------------------------------------------------------------------------------------
                       Internal Coordinate Forces (Hartree/Bohr or radian)
  Cent   Atom   N1       Length/X         N2         Alpha/Y        N3         Beta/Z          J
 -----------------------------------------------------------------------------------------------
      1  C 
      2  C        1  -0.000082(     1)
      3  C        1   0.000100(     2)      2   0.000128(    13)
      4  C        1  -0.000051(     3)      2   0.000104(    14)      3  -0.000078(    24)     0
      5  H        1  -0.000029(     4)      2  -0.000051(    15)      3   0.000171(    25)     0
      6  H        3  -0.000016(     5)      1  -0.000086(    16)      2  -0.000076(    26)     0
      7  H        3   0.000006(     6)      1  -0.000022(    17)      6  -0.000020(    27)     0
      8  H        4  -0.000000(     7)      1   0.000018(    18)      2   0.000053(    28)     0
      9  H        4   0.000002(     8)      1  -0.000064(    19)      8   0.000015(    29)     0
     10  C        2   0.000043(     9)      1   0.000178(    20)      3   0.000273(    30)     0
     11  H        2   0.000012(    10)      1   0.000033(    21)     10   0.000221(    31)     0
     12  H       10  -0.000003(    11)      2  -0.000059(    22)      1  -0.000107(    32)     0
     13  H       10  -0.000030(    12)      2  -0.000080(    23)     12   0.000028(    33)     0
 -----------------------------------------------------------------------------------------------
 Internal  Forces:  Max     0.000272687 RMS     0.000093350

 GradGradGradGradGradGradGradGradGradGradGradGradGradGradGradGradGradGrad
 Berny optimization.
 Search for a local minimum.
 Step number   2 out of a maximum of   43
 All quantities printed in internal units (Hartrees-Bohrs-Radians)
 Update second derivatives using D2CorN and points    1    2
 DE= -4.67D-06 DEPred=-3.32D-06 R= 1.41D+00
 TightC=F SS=  1.41D+00  RLast= 8.16D-03 DXNew= 1.6818D-01 2.4487D-02
 Trust test= 1.41D+00 RLast= 8.16D-03 DXMaxT set to 1.00D-01
 ITU=  1  0
     Eigenvalues ---    0.01414   0.04168   0.05162   0.06117   0.06988
     Eigenvalues ---    0.10240   0.14155   0.15248   0.17100   0.18892
     Eigenvalues ---    0.19901   0.21539   0.22450   0.32842   0.34148
     Eigenvalues ---    0.35065   0.35317   0.35598   0.35726   0.35757
     Eigenvalues ---    0.35772   0.35800   0.35845   0.39319   0.43365
     Eigenvalues ---    0.47266   0.47952   0.48632   0.51733   0.59818
     Eigenvalues ---    0.67519   1.26931   2.37681
 RFO step:  Lambda=-4.08130900D-06 EMin= 1.41409634D-02
 Quartic linear search produced a step of  0.68399.
 Variable       Old X    -DE/DX   Delta X   Delta X   Delta X     New X
                                 (Linear)    (Quad)   (Total)
    R2        2.80038  -0.00008  -0.00085   0.00022  -0.00064   2.79974
    R3        2.86445   0.00010   0.00016   0.00078   0.00094   2.86538
    R4        2.83635  -0.00005  -0.00016   0.00026   0.00009   2.83644
    R5        2.05071  -0.00003  -0.00041   0.00018  -0.00023   2.05048
    R6        2.04488  -0.00002   0.00026  -0.00033  -0.00007   2.04481
    R7        2.04418   0.00001  -0.00034   0.00034  -0.00000   2.04418
    R8        2.04350  -0.00000   0.00016  -0.00014   0.00002   2.04351
    R9        2.04376   0.00000  -0.00037   0.00034  -0.00003   2.04373
   R10        2.51128   0.00004   0.00054  -0.00035   0.00019   2.51147
   R11        2.05585   0.00001   0.00014  -0.00004   0.00010   2.05595
   R12        2.04719  -0.00000   0.00002  -0.00004  -0.00002   2.04716
   R13        2.04618  -0.00003   0.00050  -0.00063  -0.00013   2.04606
    A3        2.10078   0.00013  -0.00047   0.00029  -0.00018   2.10060
    A4        2.14489   0.00010   0.00025  -0.00012   0.00013   2.14502
    A5        1.98279  -0.00005  -0.00016  -0.00003  -0.00019   1.98261
    A6        2.04347  -0.00009   0.00015  -0.00098  -0.00083   2.04264
    A7        2.06226  -0.00002  -0.00045   0.00044  -0.00001   2.06224
    A8        2.06554   0.00002   0.00025  -0.00015   0.00009   2.06564
    A9        2.05577  -0.00006  -0.00046  -0.00021  -0.00067   2.05510
   A10        2.21300   0.00018   0.00080   0.00054   0.00135   2.21435
   A11        2.00228   0.00003  -0.00046  -0.00005  -0.00051   2.00176
   A12        2.13081  -0.00006  -0.00037   0.00021  -0.00016   2.13066
   A13        2.11494  -0.00008  -0.00020  -0.00037  -0.00057   2.11438
    D4        1.24968  -0.00008  -0.00032  -0.00032  -0.00063   1.24905
    D5       -2.45537   0.00017   0.00017   0.00023   0.00041  -2.45497
    D6        0.09144  -0.00008   0.00057  -0.00161  -0.00104   0.09040
    D7       -2.51146  -0.00002   0.00019   0.00062   0.00082  -2.51065
    D8       -0.02212   0.00005   0.00071   0.00073   0.00143  -0.02068
    D9        2.51412   0.00002  -0.00013  -0.00080  -0.00093   2.51319
   D10       -1.52760   0.00027   0.00391   0.01200   0.01591  -1.51170
   D11        3.13667   0.00022   0.00153  -0.00196  -0.00044   3.13623
   D12       -0.02608  -0.00011  -0.00036  -0.00394  -0.00430  -0.03038
   D13       -3.13392   0.00003   0.00296   0.00207   0.00503  -3.12889
         Item               Value     Threshold  Converged?
 Maximum Force            0.000273     0.000450     YES
 RMS     Force            0.000093     0.000300     YES
 Maximum Displacement     0.015907     0.001800     NO 
 RMS     Displacement     0.003052     0.001200     NO 
 Predicted change in Energy=-2.680487D-06
 GradGradGradGradGradGradGradGradGradGradGradGradGradGradGradGradGradGrad

 ---------------------------------------------------------------------------------------------------
                            Z-MATRIX (ANGSTROMS AND DEGREES)
   CD    Cent   Atom    N1       Length/X        N2       Alpha/Y        N3        Beta/Z          J
 ---------------------------------------------------------------------------------------------------
      1      1  C 
      2      2  C        1   1.481561(     1)
      3      3  C        1   1.516296(     2)      2  120.356(    13)
      4      4  C        1   1.500978(     3)      2  122.901(    14)      3   71.565(    24)      0
      5      5  H        1   1.085067(     4)      2  113.595(    15)      3 -140.659(    25)      0
      6      6  H        3   1.082067(     5)      1  117.034(    16)      2    5.179(    26)      0
      7      7  H        3   1.081733(     6)      1  118.158(    17)      6 -143.850(    27)      0
      8      8  H        4   1.081382(     7)      1  118.352(    18)      2   -1.185(    28)      0
      9      9  H        4   1.081494(     8)      1  117.749(    19)      8  143.995(    29)      0
     10     10  C        2   1.329013(     9)      1  126.873(    20)      3  -86.614(    30)      0
     11     11  H        2   1.087960(    10)      1  114.692(    21)     10  179.693(    31)      0
     12     12  H       10   1.083312(    11)      2  122.078(    22)      1   -1.741(    32)      0
     13     13  H       10   1.082726(    12)      2  121.145(    23)     12 -179.272(    33)      0
 ---------------------------------------------------------------------------------------------------
                         Z-Matrix orientation:                         
 ---------------------------------------------------------------------
 Center     Atomic      Atomic             Coordinates (Angstroms)
 Number     Number       Type             X           Y           Z
 ---------------------------------------------------------------------
      1          6           0        0.000000    0.000000    0.000000
      2          6           0        0.000000    0.000000    1.481561
      3          6           0        1.308419    0.000000   -0.766286
      4          6           0        0.398515   -1.195571   -0.815312
      5          1           0       -0.769022    0.630351   -0.434318
      6          1           0        2.217920   -0.087008   -0.186539
      7          1           0        1.386983    0.629823   -1.642241
      8          1           0        0.716963   -2.088695   -0.295403
      9          1           0       -0.147614   -1.386680   -1.729013
     10          6           0        0.062797   -1.061315    2.279021
     11          1           0       -0.053094    0.987054    1.936053
     12          1           0        0.094664   -2.071966    1.890258
     13          1           0        0.072773   -0.952563    3.356225
 ---------------------------------------------------------------------
                    Distance matrix (angstroms):
                    1          2          3          4          5
     1  C    0.000000
     2  C    1.481561   0.000000
     3  C    1.516296   2.600919   0.000000
     4  C    1.500978   2.619891   1.503236   0.000000
     5  H    1.085067   2.158548   2.196203   2.200521   0.000000
     6  H    2.227450   2.776562   1.082067   2.221373   3.081853
     7  H    2.239945   3.475419   1.081733   2.234489   2.471323
     8  H    2.227992   2.834481   2.221306   1.081382   3.101720
     9  H    2.221296   3.500351   2.229295   1.081494   2.476045
    10  C    2.514810   1.329013   3.457146   3.115385   3.303917
    11  H    2.173798   1.087960   3.182865   3.540877   2.501689
    12  H    2.806257   2.114009   3.580987   2.860157   3.667713
    13  H    3.489544   2.104053   4.407867   4.191286   4.193144
                    6          7          8          9         10
     6  H    0.000000
     7  H    1.823012   0.000000
     8  H    2.504292   3.106967   0.000000
     9  H    3.108718   2.535508   1.815367   0.000000
    10  C    3.416550   4.470986   2.847999   4.026719   0.000000
    11  H    3.288846   3.873710   3.877192   4.367637   2.080114
    12  H    3.572304   4.631231   2.272586   3.691535   1.083312
    13  H    4.231077   5.405160   3.878165   5.108490   1.082726
                   11         12         13
    11  H    0.000000
    12  H    3.062928   0.000000
    13  H    2.407248   1.844615   0.000000
 Symmetry turned off by external request.
 Stoichiometry    C5H8
 Framework group  C1[X(C5H8)]
 Deg. of freedom    33
 Full point group                 C1      NOp   1
 Rotational constants (GHZ):          11.6827238           3.6593152           3.3079278
 Standard basis: def2TZVP (5D, 7F)
 The following finite field(s) will be applied:
 An electric field of              0.0012 -0.0006  0.0021
   203 basis functions,   319 primitive gaussians,   228 cartesian basis functions
    19 alpha electrons       19 beta electrons
       nuclear repulsion energy       165.0546400535 Hartrees.
 NAtoms=   13 NActive=   13 NUniq=   13 SFac= 1.00D+00 NAtFMM=   60 NAOKFM=F Big=F
 Integral buffers will be    131072 words long.
 Raffenetti 2 integral format.
 Two-electron integral symmetry is turned off.
 One-electron integrals computed using PRISM.
   1 Symmetry operations used in ECPInt.
 ECPInt:  NShTT=    3828 NPrTT=   11160 LenC2=    3810 LenP2D=    9471.
 LDataN:  DoStor=T MaxTD1= 6 Len=  172
 NBasis=   203 RedAO= T EigKep=  1.51D-04  NBF=   203
 NBsUse=   203 1.00D-06 EigRej= -1.00D+00 NBFU=   203
 The nuclear repulsion energy is now       165.1714681429 hartrees.
 Initial guess from the checkpoint file:  "checkpoint.chk"
 B after Tr=     0.001300   -0.002596    0.001219
         Rot=    0.999997    0.000518   -0.001296   -0.001992 Ang=   0.28 deg.
 Requested convergence on RMS density matrix=1.00D-08 within 128 cycles.
 Requested convergence on MAX density matrix=1.00D-06.
 Requested convergence on             energy=1.00D-06.
 No special actions if energy rises.
 SCF Done:  E(RB3LYP) =  -195.367875472     A.U. after    8 cycles
            NFock=  8  Conv=0.68D-08     -V/T= 2.0056
   1 Symmetry operations used in ECPInt.
 ECPInt:  NShTT=    3828 NPrTT=   11160 LenC2=    3810 LenP2D=    9471.
 LDataN:  DoStor=T MaxTD1= 7 Len=  274
 Calling FoFJK, ICntrl=      2127 FMM=F ISym2X=0 I1Cent= 0 IOpClX= 0 NMat=1 NMatS=1 NMatT=0.
 -------------------------------------------------------------------
 Center     Atomic                   Forces (Hartrees/Bohr)
 Number     Number              X              Y              Z
 -------------------------------------------------------------------
      1        6          -0.000156906   -0.000144030    0.000036964
      2        6           0.000113495    0.000114963    0.000045988
      3        6           0.000053023   -0.000002875   -0.000065921
      4        6           0.000045594    0.000012297    0.000028767
      5        1           0.000031401    0.000036933   -0.000016622
      6        1          -0.000013830    0.000005615    0.000010359
      7        1          -0.000013306    0.000021156    0.000003636
      8        1          -0.000011508    0.000000919   -0.000021470
      9        1          -0.000015487   -0.000000298   -0.000009080
     10        6          -0.000130570    0.000005797   -0.000033378
     11        1          -0.000025571   -0.000018251   -0.000010770
     12        1           0.000062785   -0.000014151    0.000042174
     13        1           0.000060881   -0.000018077   -0.000010648
 -------------------------------------------------------------------
 Cartesian Forces:  Max     0.000156906 RMS     0.000055248
 -----------------------------------------------------------------------------------------------
                       Internal Coordinate Forces (Hartree/Bohr or radian)
  Cent   Atom   N1       Length/X         N2         Alpha/Y        N3         Beta/Z          J
 -----------------------------------------------------------------------------------------------
      1  C 
      2  C        1   0.000033(     1)
      3  C        1   0.000049(     2)      2   0.000079(    13)
      4  C        1  -0.000004(     3)      2   0.000056(    14)      3  -0.000028(    24)     0
      5  H        1   0.000006(     4)      2   0.000032(    15)      3   0.000091(    25)     0
      6  H        3  -0.000007(     5)      1  -0.000033(    16)      2   0.000014(    26)     0
      7  H        3   0.000008(     6)      1  -0.000040(    17)      6   0.000024(    27)     0
      8  H        4  -0.000014(     7)      1   0.000034(    18)      2   0.000008(    28)     0
      9  H        4   0.000016(     8)      1  -0.000014(    19)      8  -0.000010(    29)     0
     10  C        2   0.000020(     9)      1   0.000009(    20)      3   0.000139(    30)     0
     11  H        2  -0.000020(    10)      1  -0.000006(    21)     10   0.000050(    31)     0
     12  H       10  -0.000000(    11)      2   0.000096(    22)      1   0.000001(    32)     0
     13  H       10  -0.000012(    12)      2   0.000041(    23)     12  -0.000105(    33)     0
 -----------------------------------------------------------------------------------------------
 Internal  Forces:  Max     0.000138749 RMS     0.000047119

 GradGradGradGradGradGradGradGradGradGradGradGradGradGradGradGradGradGrad
 Berny optimization.
 Search for a local minimum.
 Step number   3 out of a maximum of   43
 All quantities printed in internal units (Hartrees-Bohrs-Radians)
 Update second derivatives using D2CorN and points    1    2    3
 DE= -3.70D-06 DEPred=-2.68D-06 R= 1.38D+00
 TightC=F SS=  1.41D+00  RLast= 1.75D-02 DXNew= 1.6818D-01 5.2592D-02
 Trust test= 1.38D+00 RLast= 1.75D-02 DXMaxT set to 1.00D-01
 ITU=  1  1  0
     Eigenvalues ---    0.00957   0.04225   0.05144   0.06123   0.07005
     Eigenvalues ---    0.10164   0.14142   0.15248   0.17104   0.18877
     Eigenvalues ---    0.19895   0.21481   0.22432   0.32834   0.34155
     Eigenvalues ---    0.35066   0.35318   0.35598   0.35727   0.35758
     Eigenvalues ---    0.35772   0.35810   0.35847   0.39321   0.43356
     Eigenvalues ---    0.47276   0.47953   0.48628   0.51721   0.59815
     Eigenvalues ---    0.67519   1.26931   2.37675
 RFO step:  Lambda=-1.06290076D-06 EMin= 9.56859095D-03
 Quartic linear search produced a step of  0.45709.
 Variable       Old X    -DE/DX   Delta X   Delta X   Delta X     New X
                                 (Linear)    (Quad)   (Total)
    R2        2.79974   0.00003  -0.00029   0.00021  -0.00008   2.79967
    R3        2.86538   0.00005   0.00043   0.00018   0.00061   2.86599
    R4        2.83644  -0.00000   0.00004   0.00010   0.00015   2.83659
    R5        2.05048   0.00001  -0.00011   0.00004  -0.00006   2.05042
    R6        2.04481  -0.00001  -0.00003  -0.00001  -0.00004   2.04477
    R7        2.04418   0.00001  -0.00000   0.00002   0.00002   2.04420
    R8        2.04351  -0.00001   0.00001  -0.00006  -0.00005   2.04346
    R9        2.04373   0.00002  -0.00001   0.00006   0.00005   2.04377
   R10        2.51147   0.00002   0.00009   0.00003   0.00012   2.51159
   R11        2.05595  -0.00002   0.00004  -0.00010  -0.00005   2.05589
   R12        2.04716  -0.00000  -0.00001   0.00000  -0.00001   2.04716
   R13        2.04606  -0.00001  -0.00006  -0.00002  -0.00007   2.04598
    A3        2.10060   0.00008  -0.00008  -0.00003  -0.00011   2.10049
    A4        2.14502   0.00006   0.00006   0.00017   0.00022   2.14525
    A5        1.98261   0.00003  -0.00009   0.00012   0.00003   1.98264
    A6        2.04264  -0.00003  -0.00038  -0.00001  -0.00039   2.04224
    A7        2.06224  -0.00004  -0.00001  -0.00029  -0.00030   2.06194
    A8        2.06564   0.00003   0.00004   0.00017   0.00022   2.06585
    A9        2.05510  -0.00001  -0.00031  -0.00014  -0.00045   2.05465
   A10        2.21435   0.00001   0.00062  -0.00007   0.00055   2.21489
   A11        2.00176  -0.00001  -0.00024  -0.00004  -0.00028   2.00148
   A12        2.13066   0.00010  -0.00007   0.00052   0.00045   2.13111
   A13        2.11438   0.00004  -0.00026   0.00002  -0.00024   2.11413
    D4        1.24905  -0.00003  -0.00029  -0.00007  -0.00036   1.24869
    D5       -2.45497   0.00009   0.00019   0.00015   0.00033  -2.45464
    D6        0.09040   0.00001  -0.00048   0.00022  -0.00026   0.09013
    D7       -2.51065   0.00002   0.00037   0.00037   0.00075  -2.50990
    D8       -0.02068   0.00001   0.00066   0.00021   0.00087  -0.01981
    D9        2.51319  -0.00001  -0.00043  -0.00021  -0.00064   2.51256
   D10       -1.51170   0.00014   0.00727   0.00427   0.01154  -1.50015
   D11        3.13623   0.00005  -0.00020  -0.00104  -0.00124   3.13499
   D12       -0.03038   0.00000  -0.00197   0.00116  -0.00080  -0.03118
   D13       -3.12889  -0.00011   0.00230  -0.00267  -0.00037  -3.12926
         Item               Value     Threshold  Converged?
 Maximum Force            0.000139     0.000450     YES
 RMS     Force            0.000047     0.000300     YES
 Maximum Displacement     0.011542     0.001800     NO 
 RMS     Displacement     0.002054     0.001200     NO 
 Predicted change in Energy=-8.252763D-07
 GradGradGradGradGradGradGradGradGradGradGradGradGradGradGradGradGradGrad

 ---------------------------------------------------------------------------------------------------
                            Z-MATRIX (ANGSTROMS AND DEGREES)
   CD    Cent   Atom    N1       Length/X        N2       Alpha/Y        N3        Beta/Z          J
 ---------------------------------------------------------------------------------------------------
      1      1  C 
      2      2  C        1   1.481519(     1)
      3      3  C        1   1.516617(     2)      2  120.349(    13)
      4      4  C        1   1.501056(     3)      2  122.914(    14)      3   71.545(    24)      0
      5      5  H        1   1.085035(     4)      2  113.597(    15)      3 -140.640(    25)      0
      6      6  H        3   1.082046(     5)      1  117.012(    16)      2    5.164(    26)      0
      7      7  H        3   1.081745(     6)      1  118.141(    17)      6 -143.807(    27)      0
      8      8  H        4   1.081354(     7)      1  118.365(    18)      2   -1.135(    28)      0
      9      9  H        4   1.081518(     8)      1  117.723(    19)      8  143.959(    29)      0
     10     10  C        2   1.329076(     9)      1  126.904(    20)      3  -85.952(    30)      0
     11     11  H        2   1.087932(    10)      1  114.677(    21)     10  179.622(    31)      0
     12     12  H       10   1.083308(    11)      2  122.103(    22)      1   -1.787(    32)      0
     13     13  H       10   1.082687(    12)      2  121.131(    23)     12 -179.294(    33)      0
 ---------------------------------------------------------------------------------------------------
                         Z-Matrix orientation:                         
 ---------------------------------------------------------------------
 Center     Atomic      Atomic             Coordinates (Angstroms)
 Number     Number       Type             X           Y           Z
 ---------------------------------------------------------------------
      1          6           0        0.000000    0.000000    0.000000
      2          6           0        0.000000    0.000000    1.481519
      3          6           0        1.308783    0.000000   -0.766299
      4          6           0        0.398912   -1.195314   -0.815638
      5          1           0       -0.768780    0.630577   -0.434339
      6          1           0        2.217982   -0.086773   -0.186083
      7          1           0        1.387298    0.630278   -1.641946
      8          1           0        0.716965   -2.088789   -0.296146
      9          1           0       -0.147354   -1.385913   -1.729392
     10          6           0        0.075016   -1.060136    2.279598
     11          1           0       -0.063266    0.986554    1.935726
     12          1           0        0.117845   -2.070770    1.891862
     13          1           0        0.084767   -0.950365    3.356662
 ---------------------------------------------------------------------
                    Distance matrix (angstroms):
                    1          2          3          4          5
     1  C    0.000000
     2  C    1.481519   0.000000
     3  C    1.516617   2.601077   0.000000
     4  C    1.501056   2.620083   1.503022   0.000000
     5  H    1.085035   2.158510   2.196381   2.200630   0.000000
     6  H    2.227465   2.776306   1.082046   2.221310   3.081715
     7  H    2.240052   3.475325   1.081745   2.234385   2.471231
     8  H    2.228179   2.834991   2.221335   1.081354   3.101852
     9  H    2.221095   3.500345   2.229044   1.081518   2.475795
    10  C    2.515170   1.329076   3.453050   3.115070   3.306956
    11  H    2.173552   1.087932   3.186965   3.541774   2.498336
    12  H    2.807333   2.114322   3.573827   2.859367   3.673499
    13  H    3.489636   2.103934   4.404567   4.191273   4.195189
                    6          7          8          9         10
     6  H    0.000000
     7  H    1.823112   0.000000
     8  H    2.504643   3.107064   0.000000
     9  H    3.108759   2.535316   1.815289   0.000000
    10  C    3.408713   4.467448   2.846873   4.028347   0.000000
    11  H    3.295178   3.876958   3.879143   4.366779   2.079978
    12  H    3.558747   4.625470   2.268623   3.694975   1.083308
    13  H    4.224623   5.401953   3.877975   5.109944   1.082687
                   11         12         13
    11  H    0.000000
    12  H    3.062999   0.000000
    13  H    2.406788   1.844462   0.000000
 Symmetry turned off by external request.
 Stoichiometry    C5H8
 Framework group  C1[X(C5H8)]
 Deg. of freedom    33
 Full point group                 C1      NOp   1
 Rotational constants (GHZ):          11.6679431           3.6602388           3.3116187
 Standard basis: def2TZVP (5D, 7F)
 The following finite field(s) will be applied:
 An electric field of              0.0012 -0.0006  0.0021
   203 basis functions,   319 primitive gaussians,   228 cartesian basis functions
    19 alpha electrons       19 beta electrons
       nuclear repulsion energy       165.0616838118 Hartrees.
 NAtoms=   13 NActive=   13 NUniq=   13 SFac= 1.00D+00 NAtFMM=   60 NAOKFM=F Big=F
 Integral buffers will be    131072 words long.
 Raffenetti 2 integral format.
 Two-electron integral symmetry is turned off.
 One-electron integrals computed using PRISM.
   1 Symmetry operations used in ECPInt.
 ECPInt:  NShTT=    3828 NPrTT=   11160 LenC2=    3810 LenP2D=    9472.
 LDataN:  DoStor=T MaxTD1= 6 Len=  172
 NBasis=   203 RedAO= T EigKep=  1.50D-04  NBF=   203
 NBsUse=   203 1.00D-06 EigRej= -1.00D+00 NBFU=   203
 The nuclear repulsion energy is now       165.1787374884 hartrees.
 Initial guess from the checkpoint file:  "checkpoint.chk"
 B after Tr=     0.000986   -0.001896    0.000983
         Rot=    0.999998    0.000318   -0.001010   -0.001448 Ang=   0.21 deg.
 Requested convergence on RMS density matrix=1.00D-08 within 128 cycles.
 Requested convergence on MAX density matrix=1.00D-06.
 Requested convergence on             energy=1.00D-06.
 No special actions if energy rises.
 SCF Done:  E(RB3LYP) =  -195.367876620     A.U. after    8 cycles
            NFock=  8  Conv=0.46D-08     -V/T= 2.0056
   1 Symmetry operations used in ECPInt.
 ECPInt:  NShTT=    3828 NPrTT=   11160 LenC2=    3810 LenP2D=    9472.
 LDataN:  DoStor=T MaxTD1= 7 Len=  274
 Calling FoFJK, ICntrl=      2127 FMM=F ISym2X=0 I1Cent= 0 IOpClX= 0 NMat=1 NMatS=1 NMatT=0.
 -------------------------------------------------------------------
 Center     Atomic                   Forces (Hartrees/Bohr)
 Number     Number              X              Y              Z
 -------------------------------------------------------------------
      1        6          -0.000124774   -0.000154806    0.000043940
      2        6           0.000161427    0.000078382    0.000037047
      3        6           0.000013011    0.000049147   -0.000037798
      4        6           0.000006070    0.000031441   -0.000005679
      5        1           0.000027381    0.000007078   -0.000019119
      6        1          -0.000007657    0.000004621    0.000008164
      7        1          -0.000000993    0.000003772    0.000000235
      8        1          -0.000000087   -0.000002792   -0.000007925
      9        1          -0.000007830   -0.000006787    0.000002679
     10        6          -0.000142855    0.000029617   -0.000053933
     11        1          -0.000025502   -0.000013960   -0.000008743
     12        1           0.000044828   -0.000008005    0.000030607
     13        1           0.000056982   -0.000017708    0.000010524
 -------------------------------------------------------------------
 Cartesian Forces:  Max     0.000161427 RMS     0.000053928
 -----------------------------------------------------------------------------------------------
                       Internal Coordinate Forces (Hartree/Bohr or radian)
  Cent   Atom   N1       Length/X         N2         Alpha/Y        N3         Beta/Z          J
 -----------------------------------------------------------------------------------------------
      1  C 
      2  C        1   0.000016(     1)
      3  C        1   0.000019(     2)      2   0.000046(    13)
      4  C        1  -0.000012(     3)      2   0.000069(    14)      3  -0.000015(    24)     0
      5  H        1  -0.000008(     4)      2   0.000050(    15)      3   0.000043(    25)     0
      6  H        3  -0.000002(     5)      1  -0.000022(    16)      2  -0.000004(    26)     0
      7  H        3   0.000002(     6)      1  -0.000004(    17)      6   0.000005(    27)     0
      8  H        4  -0.000002(     7)      1   0.000017(    18)      2  -0.000017(    28)     0
      9  H        4   0.000003(     8)      1   0.000001(    19)      8  -0.000019(    29)     0
     10  C        2  -0.000013(     9)      1   0.000005(    20)      3   0.000040(    30)     0
     11  H        2  -0.000015(    10)      1  -0.000006(    21)     10   0.000049(    31)     0
     12  H       10  -0.000002(    11)      2   0.000068(    22)      1  -0.000022(    32)     0
     13  H       10   0.000009(    12)      2   0.000045(    23)     12  -0.000097(    33)     0
 -----------------------------------------------------------------------------------------------
 Internal  Forces:  Max     0.000097492 RMS     0.000032504

 GradGradGradGradGradGradGradGradGradGradGradGradGradGradGradGradGradGrad
 Berny optimization.
 Search for a local minimum.
 Step number   4 out of a maximum of   43
 All quantities printed in internal units (Hartrees-Bohrs-Radians)
 Update second derivatives using D2CorN and points    1    2    3    4
 DE= -1.15D-06 DEPred=-8.25D-07 R= 1.39D+00
 TightC=F SS=  1.41D+00  RLast= 1.18D-02 DXNew= 1.6818D-01 3.5395D-02
 Trust test= 1.39D+00 RLast= 1.18D-02 DXMaxT set to 1.00D-01
 ITU=  1  1  1  0
     Eigenvalues ---    0.00785   0.04196   0.05129   0.06129   0.07024
     Eigenvalues ---    0.10133   0.14135   0.15246   0.17107   0.18872
     Eigenvalues ---    0.19893   0.21459   0.22426   0.32833   0.34157
     Eigenvalues ---    0.35066   0.35318   0.35598   0.35727   0.35758
     Eigenvalues ---    0.35772   0.35813   0.35848   0.39321   0.43353
     Eigenvalues ---    0.47276   0.47953   0.48628   0.51719   0.59816
     Eigenvalues ---    0.67518   1.26932   2.37673
 RFO step:  Lambda=-1.49497064D-07 EMin= 7.84696688D-03
 Quartic linear search produced a step of  0.44249.
 Variable       Old X    -DE/DX   Delta X   Delta X   Delta X     New X
                                 (Linear)    (Quad)   (Total)
    R2        2.79967   0.00002  -0.00003   0.00004   0.00000   2.79967
    R3        2.86599   0.00002   0.00027  -0.00003   0.00024   2.86623
    R4        2.83659  -0.00001   0.00007  -0.00003   0.00003   2.83662
    R5        2.05042  -0.00001  -0.00003  -0.00003  -0.00006   2.05036
    R6        2.04477  -0.00000  -0.00002   0.00000  -0.00001   2.04476
    R7        2.04420   0.00000   0.00001  -0.00001   0.00001   2.04421
    R8        2.04346  -0.00000  -0.00002   0.00001  -0.00001   2.04345
    R9        2.04377   0.00000   0.00002  -0.00001   0.00001   2.04378
   R10        2.51159  -0.00001   0.00005  -0.00005  -0.00000   2.51159
   R11        2.05589  -0.00001  -0.00002  -0.00003  -0.00006   2.05584
   R12        2.04716  -0.00000  -0.00000  -0.00001  -0.00001   2.04715
   R13        2.04598   0.00001  -0.00003   0.00006   0.00003   2.04601
    A3        2.10049   0.00005  -0.00005   0.00009   0.00004   2.10053
    A4        2.14525   0.00007   0.00010   0.00008   0.00018   2.14542
    A5        1.98264   0.00005   0.00002   0.00008   0.00009   1.98273
    A6        2.04224  -0.00002  -0.00017  -0.00005  -0.00022   2.04202
    A7        2.06194  -0.00000  -0.00013   0.00008  -0.00005   2.06189
    A8        2.06585   0.00002   0.00010   0.00000   0.00010   2.06595
    A9        2.05465   0.00000  -0.00020   0.00003  -0.00017   2.05448
   A10        2.21489   0.00000   0.00024  -0.00004   0.00021   2.21510
   A11        2.00148  -0.00001  -0.00012  -0.00001  -0.00013   2.00135
   A12        2.13111   0.00007   0.00020   0.00012   0.00032   2.13142
   A13        2.11413   0.00005  -0.00011   0.00010  -0.00000   2.11413
    D4        1.24869  -0.00001  -0.00016   0.00010  -0.00006   1.24863
    D5       -2.45464   0.00004   0.00015   0.00007   0.00022  -2.45442
    D6        0.09013  -0.00000  -0.00012   0.00002  -0.00010   0.09004
    D7       -2.50990   0.00000   0.00033  -0.00002   0.00031  -2.50959
    D8       -0.01981  -0.00002   0.00038  -0.00018   0.00021  -0.01961
    D9        2.51256  -0.00002  -0.00028  -0.00003  -0.00031   2.51224
   D10       -1.50015   0.00004   0.00511  -0.00078   0.00433  -1.49583
   D11        3.13499   0.00005  -0.00055   0.00028  -0.00026   3.13473
   D12       -0.03118  -0.00002  -0.00036   0.00051   0.00016  -0.03103
   D13       -3.12926  -0.00010  -0.00017  -0.00120  -0.00137  -3.13063
         Item               Value     Threshold  Converged?
 Maximum Force            0.000097     0.000450     YES
 RMS     Force            0.000033     0.000300     YES
 Maximum Displacement     0.004326     0.001800     NO 
 RMS     Displacement     0.000804     0.001200     YES
 Predicted change in Energy=-1.652694D-07
 GradGradGradGradGradGradGradGradGradGradGradGradGradGradGradGradGradGrad

 ---------------------------------------------------------------------------------------------------
                            Z-MATRIX (ANGSTROMS AND DEGREES)
   CD    Cent   Atom    N1       Length/X        N2       Alpha/Y        N3        Beta/Z          J
 ---------------------------------------------------------------------------------------------------
      1      1  C 
      2      2  C        1   1.481521(     1)
      3      3  C        1   1.516744(     2)      2  120.352(    13)
      4      4  C        1   1.501073(     3)      2  122.924(    14)      3   71.541(    24)      0
      5      5  H        1   1.085005(     4)      2  113.602(    15)      3 -140.628(    25)      0
      6      6  H        3   1.082038(     5)      1  116.999(    16)      2    5.159(    26)      0
      7      7  H        3   1.081748(     6)      1  118.138(    17)      6 -143.789(    27)      0
      8      8  H        4   1.081349(     7)      1  118.370(    18)      2   -1.123(    28)      0
      9      9  H        4   1.081524(     8)      1  117.713(    19)      8  143.941(    29)      0
     10     10  C        2   1.329076(     9)      1  126.916(    20)      3  -85.705(    30)      0
     11     11  H        2   1.087901(    10)      1  114.669(    21)     10  179.607(    31)      0
     12     12  H       10   1.083303(    11)      2  122.122(    22)      1   -1.778(    32)      0
     13     13  H       10   1.082701(    12)      2  121.131(    23)     12 -179.372(    33)      0
 ---------------------------------------------------------------------------------------------------
                         Z-Matrix orientation:                         
 ---------------------------------------------------------------------
 Center     Atomic      Atomic             Coordinates (Angstroms)
 Number     Number       Type             X           Y           Z
 ---------------------------------------------------------------------
      1          6           0        0.000000    0.000000    0.000000
      2          6           0        0.000000    0.000000    1.481521
      3          6           0        1.308859    0.000000   -0.766421
      4          6           0        0.398947   -1.195166   -0.815867
      5          1           0       -0.768591    0.630700   -0.434419
      6          1           0        2.217951   -0.086691   -0.186039
      7          1           0        1.387348    0.630454   -1.641947
      8          1           0        0.716914   -2.088817   -0.296635
      9          1           0       -0.147531   -1.385559   -1.729544
     10          6           0        0.079588   -1.059637    2.279818
     11          1           0       -0.067274    0.986321    1.935586
     12          1           0        0.126951   -2.070266    1.892609
     13          1           0        0.089969   -0.949526    3.356856
 ---------------------------------------------------------------------
                    Distance matrix (angstroms):
                    1          2          3          4          5
     1  C    0.000000
     2  C    1.481521   0.000000
     3  C    1.516744   2.601221   0.000000
     4  C    1.501073   2.620224   1.502932   0.000000
     5  H    1.085005   2.158551   2.196317   2.200553   0.000000
     6  H    2.227427   2.776253   1.082038   2.221300   3.081522
     7  H    2.240133   3.475379   1.081748   2.234331   2.471073
     8  H    2.228253   2.835306   2.221318   1.081349   3.101851
     9  H    2.221005   3.500354   2.229002   1.081524   2.475554
    10  C    2.515300   1.329076   3.451595   3.115064   3.308131
    11  H    2.173441   1.087901   3.188637   3.542138   2.497045
    12  H    2.807861   2.114500   3.571182   2.859304   3.675904
    13  H    3.489724   2.103942   4.403260   4.191351   4.196189
                    6          7          8          9         10
     6  H    0.000000
     7  H    1.823147   0.000000
     8  H    2.504766   3.107053   0.000000
     9  H    3.108853   2.535318   1.815231   0.000000
    10  C    3.405829   4.466193   2.846666   4.028994   0.000000
    11  H    3.297711   3.878312   3.879978   4.366398   2.079906
    12  H    3.553537   4.623372   2.267419   3.696506   1.083303
    13  H    4.221954   5.400700   3.878020   5.110577   1.082701
                   11         12         13
    11  H    0.000000
    12  H    3.063053   0.000000
    13  H    2.406707   1.844301   0.000000
 Symmetry turned off by external request.
 Stoichiometry    C5H8
 Framework group  C1[X(C5H8)]
 Deg. of freedom    33
 Full point group                 C1      NOp   1
 Rotational constants (GHZ):          11.6626863           3.6603948           3.3128924
 Standard basis: def2TZVP (5D, 7F)
 The following finite field(s) will be applied:
 An electric field of              0.0012 -0.0006  0.0021
   203 basis functions,   319 primitive gaussians,   228 cartesian basis functions
    19 alpha electrons       19 beta electrons
       nuclear repulsion energy       165.0634582010 Hartrees.
 NAtoms=   13 NActive=   13 NUniq=   13 SFac= 1.00D+00 NAtFMM=   60 NAOKFM=F Big=F
 Integral buffers will be    131072 words long.
 Raffenetti 2 integral format.
 Two-electron integral symmetry is turned off.
 One-electron integrals computed using PRISM.
   1 Symmetry operations used in ECPInt.
 ECPInt:  NShTT=    3828 NPrTT=   11160 LenC2=    3810 LenP2D=    9472.
 LDataN:  DoStor=T MaxTD1= 6 Len=  172
 NBasis=   203 RedAO= T EigKep=  1.50D-04  NBF=   203
 NBsUse=   203 1.00D-06 EigRej= -1.00D+00 NBFU=   203
 The nuclear repulsion energy is now       165.1805879933 hartrees.
 Initial guess from the checkpoint file:  "checkpoint.chk"
 B after Tr=     0.000288   -0.000679    0.000338
         Rot=    1.000000    0.000119   -0.000411   -0.000545 Ang=   0.08 deg.
 Requested convergence on RMS density matrix=1.00D-08 within 128 cycles.
 Requested convergence on MAX density matrix=1.00D-06.
 Requested convergence on             energy=1.00D-06.
 No special actions if energy rises.
 SCF Done:  E(RB3LYP) =  -195.367876842     A.U. after    7 cycles
            NFock=  7  Conv=0.51D-08     -V/T= 2.0056
   1 Symmetry operations used in ECPInt.
 ECPInt:  NShTT=    3828 NPrTT=   11160 LenC2=    3810 LenP2D=    9472.
 LDataN:  DoStor=T MaxTD1= 7 Len=  274
 Calling FoFJK, ICntrl=      2127 FMM=F ISym2X=0 I1Cent= 0 IOpClX= 0 NMat=1 NMatS=1 NMatT=0.
 -------------------------------------------------------------------
 Center     Atomic                   Forces (Hartrees/Bohr)
 Number     Number              X              Y              Z
 -------------------------------------------------------------------
      1        6          -0.000122167   -0.000151778    0.000039070
      2        6           0.000157348    0.000071566   -0.000002993
      3        6           0.000002312    0.000066184   -0.000019263
      4        6           0.000001167    0.000018056   -0.000004476
      5        1           0.000008793    0.000002662   -0.000011764
      6        1          -0.000001839   -0.000003417    0.000001548
      7        1           0.000000387    0.000003900    0.000002405
      8        1           0.000000684   -0.000002058   -0.000000132
      9        1          -0.000001403   -0.000004008    0.000000872
     10        6          -0.000071345    0.000011181   -0.000013712
     11        1          -0.000015070   -0.000002046   -0.000000373
     12        1           0.000022029   -0.000004057    0.000007449
     13        1           0.000019106   -0.000006186    0.000001369
 -------------------------------------------------------------------
 Cartesian Forces:  Max     0.000157348 RMS     0.000045675
 -----------------------------------------------------------------------------------------------
                       Internal Coordinate Forces (Hartree/Bohr or radian)
  Cent   Atom   N1       Length/X         N2         Alpha/Y        N3         Beta/Z          J
 -----------------------------------------------------------------------------------------------
      1  C 
      2  C        1  -0.000008(     1)
      3  C        1   0.000008(     2)      2   0.000031(    13)
      4  C        1  -0.000007(     3)      2   0.000023(    14)      3  -0.000014(    24)     0
      5  H        1   0.000000(     4)      2   0.000026(    15)      3   0.000014(    25)     0
      6  H        3  -0.000000(     5)      1  -0.000005(    16)      2   0.000014(    26)     0
      7  H        3   0.000000(     6)      1  -0.000002(    17)      6   0.000008(    27)     0
      8  H        4   0.000002(     7)      1   0.000002(    18)      2  -0.000007(    28)     0
      9  H        4   0.000001(     8)      1   0.000005(    19)      8  -0.000007(    29)     0
     10  C        2  -0.000005(     9)      1  -0.000002(    20)      3   0.000006(    30)     0
     11  H        2  -0.000001(    10)      1   0.000000(    21)     10   0.000028(    31)     0
     12  H       10   0.000002(    11)      2   0.000019(    22)      1   0.000005(    32)     0
     13  H       10   0.000001(    12)      2   0.000015(    23)     12  -0.000033(    33)     0
 -----------------------------------------------------------------------------------------------
 Internal  Forces:  Max     0.000032671 RMS     0.000013181

 GradGradGradGradGradGradGradGradGradGradGradGradGradGradGradGradGradGrad
 Berny optimization.
 Search for a local minimum.
 Step number   5 out of a maximum of   43
 All quantities printed in internal units (Hartrees-Bohrs-Radians)
 Update second derivatives using D2CorN and points    1    2    3    4    5

 DE= -2.22D-07 DEPred=-1.65D-07 R= 1.34D+00
 Trust test= 1.34D+00 RLast= 4.62D-03 DXMaxT set to 1.00D-01
 ITU=  0  1  1  1  0
     Eigenvalues ---    0.00822   0.03995   0.05111   0.06123   0.07020
     Eigenvalues ---    0.10104   0.14120   0.15243   0.17109   0.18871
     Eigenvalues ---    0.19895   0.21386   0.22414   0.32832   0.34155
     Eigenvalues ---    0.35065   0.35318   0.35598   0.35727   0.35758
     Eigenvalues ---    0.35772   0.35814   0.35848   0.39307   0.43351
     Eigenvalues ---    0.47242   0.47948   0.48626   0.51718   0.59815
     Eigenvalues ---    0.67509   1.26932   2.37669
 RFO step:  Lambda=-2.40816980D-08 EMin= 8.22333818D-03
 Quartic linear search produced a step of  0.30352.
 Variable       Old X    -DE/DX   Delta X   Delta X   Delta X     New X
                                 (Linear)    (Quad)   (Total)
    R2        2.79967  -0.00001   0.00000  -0.00004  -0.00003   2.79963
    R3        2.86623   0.00001   0.00007  -0.00001   0.00006   2.86629
    R4        2.83662  -0.00001   0.00001  -0.00001  -0.00000   2.83661
    R5        2.05036   0.00000  -0.00002   0.00001  -0.00001   2.05036
    R6        2.04476  -0.00000  -0.00000   0.00000  -0.00000   2.04475
    R7        2.04421   0.00000   0.00000  -0.00000   0.00000   2.04421
    R8        2.04345   0.00000  -0.00000   0.00001   0.00001   2.04346
    R9        2.04378   0.00000   0.00000  -0.00000   0.00000   2.04378
   R10        2.51159  -0.00001  -0.00000  -0.00001  -0.00001   2.51158
   R11        2.05584  -0.00000  -0.00002   0.00001  -0.00001   2.05583
   R12        2.04715   0.00000  -0.00000   0.00001   0.00001   2.04715
   R13        2.04601   0.00000   0.00001  -0.00000   0.00001   2.04601
    A3        2.10053   0.00003   0.00001   0.00002   0.00003   2.10057
    A4        2.14542   0.00002   0.00005   0.00004   0.00009   2.14551
    A5        1.98273   0.00003   0.00003   0.00001   0.00004   1.98277
    A6        2.04202  -0.00000  -0.00007   0.00004  -0.00002   2.04200
    A7        2.06189  -0.00000  -0.00002  -0.00001  -0.00003   2.06186
    A8        2.06595   0.00000   0.00003  -0.00002   0.00001   2.06596
    A9        2.05448   0.00000  -0.00005   0.00004  -0.00002   2.05447
   A10        2.21510  -0.00000   0.00006  -0.00005   0.00001   2.21511
   A11        2.00135   0.00000  -0.00004   0.00003  -0.00001   2.00134
   A12        2.13142   0.00002   0.00010  -0.00002   0.00008   2.13150
   A13        2.11413   0.00002  -0.00000   0.00003   0.00003   2.11415
    D4        1.24863  -0.00001  -0.00002   0.00004   0.00002   1.24864
    D5       -2.45442   0.00001   0.00007   0.00003   0.00009  -2.45433
    D6        0.09004   0.00001  -0.00003   0.00015   0.00012   0.09016
    D7       -2.50959   0.00001   0.00009  -0.00004   0.00005  -2.50954
    D8       -0.01961  -0.00001   0.00006  -0.00003   0.00003  -0.01958
    D9        2.51224  -0.00001  -0.00009   0.00001  -0.00008   2.51216
   D10       -1.49583   0.00001   0.00131  -0.00068   0.00064  -1.49519
   D11        3.13473   0.00003  -0.00008   0.00033   0.00025   3.13498
   D12       -0.03103   0.00000   0.00005   0.00044   0.00048  -0.03055
   D13       -3.13063  -0.00003  -0.00042  -0.00023  -0.00065  -3.13128
         Item               Value     Threshold  Converged?
 Maximum Force            0.000033     0.000450     YES
 RMS     Force            0.000013     0.000300     YES
 Maximum Displacement     0.000646     0.001800     YES
 RMS     Displacement     0.000189     0.001200     YES
 Predicted change in Energy=-1.999268D-08
 Optimization completed.
    -- Stationary point found.
                       ----------------------------
                       !   Optimized Parameters   !
                       ! (Angstroms and Degrees)  !
 ----------------------                            ----------------------
 !      Name          Value   Derivative information (Atomic Units)     !
 ------------------------------------------------------------------------
 !       R2          1.4815   -DE/DX =    0.0                           !
 !       R3          1.5167   -DE/DX =    0.0                           !
 !       R4          1.5011   -DE/DX =    0.0                           !
 !       R5          1.085    -DE/DX =    0.0                           !
 !       R6          1.082    -DE/DX =    0.0                           !
 !       R7          1.0817   -DE/DX =    0.0                           !
 !       R8          1.0813   -DE/DX =    0.0                           !
 !       R9          1.0815   -DE/DX =    0.0                           !
 !       R10         1.3291   -DE/DX =    0.0                           !
 !       R11         1.0879   -DE/DX =    0.0                           !
 !       R12         1.0833   -DE/DX =    0.0                           !
 !       R13         1.0827   -DE/DX =    0.0                           !
 !       A3        120.3517   -DE/DX =    0.0                           !
 !       A4        122.9238   -DE/DX =    0.0                           !
 !       A5        113.6022   -DE/DX =    0.0                           !
 !       A6        116.9992   -DE/DX =    0.0                           !
 !       A7        118.1375   -DE/DX =    0.0                           !
 !       A8        118.3704   -DE/DX =    0.0                           !
 !       A9        117.7131   -DE/DX =    0.0                           !
 !       A10       126.9158   -DE/DX =    0.0                           !
 !       A11       114.6691   -DE/DX =    0.0                           !
 !       A12       122.1215   -DE/DX =    0.0                           !
 !       A13       121.1305   -DE/DX =    0.0                           !
 !       D4         71.541    -DE/DX =    0.0                           !
 !       D5       -140.628    -DE/DX =    0.0                           !
 !       D6          5.1589   -DE/DX =    0.0                           !
 !       D7       -143.7889   -DE/DX =    0.0                           !
 !       D8         -1.1234   -DE/DX =    0.0                           !
 !       D9        143.941    -DE/DX =    0.0                           !
 !       D10       -85.7046   -DE/DX =    0.0                           !
 !       D11       179.6066   -DE/DX =    0.0                           !
 !       D12        -1.7778   -DE/DX =    0.0                           !
 !       D13      -179.372    -DE/DX =    0.0                           !
 ------------------------------------------------------------------------
[...]
   A12        2.13142   0.00002   0.00000   0.00008   0.00008   2.13150
   A13        2.11413   0.00002   0.00000   0.00004   0.00004   2.11417
    D4        1.24863  -0.00001   0.00000   0.00010   0.00010   1.24872
    D5       -2.45442   0.00001   0.00000   0.00021   0.00021  -2.45422
    D6        0.09004   0.00001   0.00000   0.00023   0.00023   0.09027
    D7       -2.50959   0.00001   0.00000   0.00006   0.00006  -2.50953
    D8       -0.01961  -0.00001   0.00000  -0.00012  -0.00012  -0.01972
    D9        2.51224  -0.00001   0.00000  -0.00010  -0.00010   2.51214
   D10       -1.49583   0.00001   0.00000   0.00017   0.00017  -1.49566
   D11        3.13473   0.00003   0.00000   0.00062   0.00062   3.13535
   D12       -0.03103   0.00000   0.00000   0.00087   0.00087  -0.03016
   D13       -3.13063  -0.00003   0.00000  -0.00105  -0.00105  -3.13168
         Item               Value     Threshold  Converged?
 Maximum Force            0.000033     0.000450     YES
 RMS     Force            0.000013     0.000300     YES
 Maximum Displacement     0.001045     0.001800     YES
 RMS     Displacement     0.000274     0.001200     YES
 Predicted change in Energy=-3.853112D-08
 Optimization completed.
    -- Stationary point found.
                       ----------------------------
                       !   Optimized Parameters   !
                       ! (Angstroms and Degrees)  !
 ----------------------                            ----------------------
 !      Name          Value   Derivative information (Atomic Units)     !
 ------------------------------------------------------------------------
 !       R2          1.4815   -DE/DX =    0.0                           !
 !       R3          1.5167   -DE/DX =    0.0                           !
 !       R4          1.5011   -DE/DX =    0.0                           !
 !       R5          1.085    -DE/DX =    0.0                           !
 !       R6          1.082    -DE/DX =    0.0                           !
 !       R7          1.0817   -DE/DX =    0.0                           !
 !       R8          1.0813   -DE/DX =    0.0                           !
 !       R9          1.0815   -DE/DX =    0.0                           !
 !       R10         1.3291   -DE/DX =    0.0                           !
 !       R11         1.0879   -DE/DX =    0.0                           !
 !       R12         1.0833   -DE/DX =    0.0                           !
 !       R13         1.0827   -DE/DX =    0.0                           !
 !       A3        120.3517   -DE/DX =    0.0                           !
 !       A4        122.9238   -DE/DX =    0.0                           !
 !       A5        113.6022   -DE/DX =    0.0                           !
 !       A6        116.9992   -DE/DX =    0.0                           !
 !       A7        118.1375   -DE/DX =    0.0                           !
 !       A8        118.3704   -DE/DX =    0.0                           !
 !       A9        117.7131   -DE/DX =    0.0                           !
 !       A10       126.9158   -DE/DX =    0.0                           !
 !       A11       114.6691   -DE/DX =    0.0                           !
 !       A12       122.1215   -DE/DX =    0.0                           !
 !       A13       121.1305   -DE/DX =    0.0                           !
 !       D4         71.541    -DE/DX =    0.0                           !
 !       D5       -140.628    -DE/DX =    0.0                           !
 !       D6          5.1589   -DE/DX =    0.0                           !
 !       D7       -143.7889   -DE/DX =    0.0                           !
 !       D8         -1.1234   -DE/DX =    0.0                           !
 !       D9        143.941    -DE/DX =    0.0                           !
 !       D10       -85.7046   -DE/DX =    0.0                           !
 !       D11       179.6066   -DE/DX =    0.0                           !
 !       D12        -1.7778   -DE/DX =    0.0                           !
 !       D13      -179.372    -DE/DX =    0.0                           !
 ------------------------------------------------------------------------
 GradGradGradGradGradGradGradGradGradGradGradGradGradGradGradGradGradGrad


 ----------------------------------------------------------------------

 Electric dipole moment (input orientation):
 (Debye = 10**-18 statcoulomb cm , SI units = C m)
                  (au)            (Debye)         (10**-30 SI)
   Tot        0.332060D+00      0.844011D+00      0.281532D+01
   x         -0.384051D-01     -0.976160D-01     -0.325612D+00
   y          0.132065D+00      0.335675D+00      0.111969D+01
   z         -0.302237D+00     -0.768211D+00     -0.256248D+01

 Dipole polarizability, Alpha (input orientation).
 (esu units = cm**3 , SI units = C**2 m**2 J**-1)
 Alpha(0;0):
               (au)            (10**-24 esu)      (10**-40 SI)
   iso        0.582730D+02      0.863516D+01      0.960791D+01
   aniso      0.216917D+02      0.321438D+01      0.357648D+01
   xx         0.479302D+02      0.710252D+01      0.790262D+01
   yx         0.999540D+00      0.148117D+00      0.164802D+00
   yy         0.580389D+02      0.860048D+01      0.956932D+01
   zx        -0.392520D+01     -0.581655D+00     -0.647178D+00
   zy        -0.556671D+01     -0.824902D+00     -0.917827D+00
   zz         0.688498D+02      0.102025D+02      0.113518D+02

 ----------------------------------------------------------------------

 Dipole orientation:
     6          0.00000000         -0.00000000          0.00000000
     6         -0.32380195         -1.11346870         -2.54823225
     6          2.62357298          0.51645904          1.03218676
     6          0.87255030          2.66654200          0.41785336
     1         -1.31860912         -0.73168482          1.38920513
     1          4.19868482          0.18914846         -0.22992120
     1          2.99090307          0.07817713          2.99477779
     1          1.31506353          3.81074756         -1.21636789
     1          0.03811886          3.70810116          1.96573242
     6         -0.39715101          0.11954182         -4.73509901
     1         -0.50439841         -3.16120413         -2.57323402
     1         -0.26963511          2.16006827         -4.83900566
     1         -0.60805926         -0.88125060         -6.50712754

 Electric dipole moment (dipole orientation):
 (Debye = 10**-18 statcoulomb cm , SI units = C m)
                  (au)            (Debye)         (10**-30 SI)
   Tot        0.332060D+00      0.844011D+00      0.281532D+01
   x          0.000000D+00      0.000000D+00      0.000000D+00
   y          0.000000D+00      0.000000D+00      0.000000D+00
   z          0.332060D+00      0.844011D+00      0.281532D+01

 Dipole polarizability, Alpha (dipole orientation).
 (esu units = cm**3 , SI units = C**2 m**2 J**-1)
 Alpha(0;0):
               (au)            (10**-24 esu)      (10**-40 SI)
   iso        0.582730D+02      0.863516D+01      0.960791D+01
   aniso      0.216917D+02      0.321438D+01      0.357648D+01
   xx         0.491963D+02      0.729014D+01      0.811137D+01
   yx         0.830115D+00      0.123010D+00      0.136868D+00
   yy         0.556508D+02      0.824660D+01      0.917557D+01
   zx         0.656421D+01      0.972716D+00      0.108229D+01
   zy        -0.514645D-01     -0.762625D-02     -0.848535D-02
   zz         0.699718D+02      0.103688D+02      0.115368D+02

 ----------------------------------------------------------------------
 1\1\GINC-BHC0030\Freq\RB3LYP\def2TZVP\C5H8\DHANAWAY\10-Jun-2022\1\\#N 
 Geom=AllCheck Guess=TCheck SCRF=Check GenChk RB3LYP/def2TZVP Freq\\int
 _zmat_initalOpt\\0,1\C\C,1,R2\C,1,R3,2,A3\C,1,R4,2,A4,3,D4,0\H,1,R5,2,
 A5,3,D5,0\H,3,R6,1,A6,2,D6,0\H,3,R7,1,A7,6,D7,0\H,4,R8,1,A8,2,D8,0\H,4
 ,R9,1,A9,8,D9,0\C,2,R10,1,A10,3,D10,0\H,2,R11,1,A11,10,D11,0\H,10,R12,
 2,A12,1,D12,0\H,10,R13,2,A13,12,D13,0\\R2=1.48152116\R3=1.51674361\R4=
 1.50107267\R5=1.08500475\R6=1.08203814\R7=1.08174825\R8=1.08134918\R9=
 1.08152364\R10=1.32907587\R11=1.08790142\R12=1.0833028\R13=1.08270134\
 A3=120.35170549\A4=122.92375945\A5=113.6022158\A6=116.99919715\A7=118.
 13752416\A8=118.37044415\A9=117.71312043\A10=126.91579269\A11=114.6690
 6399\A12=122.12150037\A13=121.1305398\D4=71.5409698\D5=-140.62797194\D
 6=5.15888513\D7=-143.7888971\D8=-1.12340041\D9=143.94097203\D10=-85.70
 464083\D11=179.60657106\D12=-1.77784293\D13=-179.37202983\\Version=ES6
 4L-G16RevA.03\HF=-195.3678768\RMSD=3.452e-09\RMSF=4.567e-05\ZeroPoint=
 0.1143549\Thermal=0.1197466\Dipole=-0.0384051,0.1320649,-0.3022375\Dip
 oleDeriv=0.0506499,0.0346837,0.2125465,0.0866562,0.0605587,-0.0389309,
 0.1167973,-0.0248493,-0.1521467,-0.2282689,0.0179125,0.0053857,0.00153
 7,0.147993,-0.0646015,-0.0841408,-0.0544645,0.4614704,-0.0559421,-0.06
 66565,0.0002767,-0.1117314,0.026346,0.1063083,0.0438973,0.0065074,0.07
 49374,0.1013327,-0.0176588,-0.059466,-0.0276343,-0.1177994,-0.1017955,
 0.0148816,-0.0629173,0.0145828,-0.0114188,0.0873361,-0.0304436,0.09299
 3,0.0230662,-0.0311828,-0.0118339,0.0376582,-0.0542668,-0.0715339,-0.0
 313873,-0.0280322,-0.0098273,0.0498478,0.0341463,-0.090085,0.0156377,0
 .0132051,0.020423,-0.0254987,0.0262564,-0.0417504,0.0255524,0.0567829,
 0.0430241,0.1002752,-0.0632287,0.0549631,0.0211976,-0.0395597,0.007365
 9,-0.0734767,0.0154727,-0.0433118,0.0808311,0.025225,0.0407839,-0.0394
 381,-0.0596731,-0.0074202,0.0250651,-0.0374661,-0.0676935,-0.0500892,-
 0.0429089,-0.3202542,0.0010192,-0.038674,-0.0261165,-0.0514268,0.20085
 51,0.0511015,0.106826,-0.1294875,0.1271262,0.0022085,0.0221268,0.02288
 82,-0.0962375,-0.0725894,0.0242833,-0.0776162,-0.0445888,0.140963,0.01
 58111,-0.0026515,0.0123593,-0.0695401,-0.0314444,-0.0007823,-0.0863773
 ,0.0300439,0.151176,0.0004709,-0.0080917,0.0006803,0.0500512,-0.035554
 8,0.0038622,0.0085782,-0.1328373\Polar=47.9301897,0.9995399,58.0389056
 ,-3.925202,-5.5667115,68.8497967\PG=C01 [X(C5H8)]\NImag=0\\0.45488145,
 -0.18989727,0.40960531,0.01727563,-0.00605925,0.56564114,-0.07169456,0
 .00870690,-0.00409311,0.15751179,0.00994812,-0.08606375,-0.00469599,-0
 .05067806,0.77043668,-0.01291584,-0.00156557,-0.22679343,0.00923840,-0
 .11580237,0.63729506,-0.15911317,0.03121030,0.06167617,0.00184288,-0.0
 0072730,0.00959941,0.57806980,-0.01329576,-0.01935816,0.03105899,-0.00
 162867,-0.00532459,-0.00563327,0.07739358,0.36806450,0.04724619,0.0025
 2060,-0.08729291,0.02690630,0.01569199,-0.01888442,0.08299825,-0.18974
 604,0.52249949,-0.04335816,0.03115410,-0.00547722,-0.00410069,-0.00169
 485,0.00697472,-0.09990719,-0.06405270,-0.01532334,0.33275394,0.073855
 34,-0.15324171,-0.07722225,0.00134121,0.00180260,-0.00464184,-0.107365
 70,-0.15170953,0.02689429,-0.00927939,0.62283030,0.01628381,-0.0506090
 9,-0.11171137,-0.00221429,-0.03308080,-0.01172705,-0.03804935,-0.00057
 029,-0.05250893,0.19190504,-0.01308647,0.54197995,-0.17703996,0.118455
 33,-0.08250117,0.00257510,-0.00182761,0.00263159,-0.02125951,0.0163220
 1,-0.00895407,0.00181578,-0.00415452,0.00525502,0.19299286,0.12050685,
 -0.13540861,0.06121477,-0.00144447,-0.00009701,0.00314671,-0.01015046,
 0.00623443,-0.00635866,0.01851143,-0.01630817,0.01174723,-0.12834614,0
 .14288390,-0.08430987,0.06613538,-0.09607875,-0.02225858,0.02103209,-0
 .01376709,0.00920062,-0.00686122,0.00263926,0.01024336,-0.00854067,0.0
 0349043,0.08259051,-0.06797247,0.10664794,-0.01739040,0.00003396,-0.01
 013394,0.00192415,0.00191286,-0.00241815,-0.24374053,0.01809063,-0.131
 43456,-0.00696913,0.00043042,-0.00076602,-0.00216248,-0.00218252,0.000
 83325,0.26278814,0.00901189,-0.00490743,0.00681556,-0.00171193,0.00033
 479,0.00125794,0.01997122,-0.04229342,0.02369257,-0.02501021,0.0028956
 0,-0.01690418,0.00236731,0.00097224,-0.00134712,-0.01798399,0.04427320
 ,0.01699398,-0.00191825,0.00951015,-0.00035335,-0.00171181,0.00221900,
 -0.13535019,0.02206651,-0.13335109,-0.00434232,0.00174740,-0.00596036,
 0.00294737,0.00127994,-0.00087389,0.13966829,-0.02108520,0.13588066,-0
 .00350025,-0.01330274,0.01692159,-0.00237122,-0.00248425,-0.00141493,-
 0.05016888,-0.00973941,0.00606217,-0.00419814,-0.00497013,0.00767831,0
 .00216857,0.00143079,0.00063796,0.00492869,0.01527043,-0.01946637,0.05
 214341,-0.00171750,0.00529256,-0.01291950,0.00252759,0.00145803,0.0000
 9050,-0.01176594,-0.13658980,0.14131483,0.00071077,-0.01483548,0.02218
 831,-0.00176290,-0.00008220,0.00073466,0.00010809,-0.00054208,-0.00021
 410,0.01441552,0.14469911,-0.00147312,0.00817956,-0.01193507,0.0027230
 5,0.00199649,0.00012787,0.00914299,0.14280666,-0.23673155,0.00163586,-
 0.00750191,0.00985081,-0.00139086,-0.00099693,0.00141727,0.00264571,0.
 00708041,-0.00957852,-0.01272611,-0.15020932,0.24679865,-0.00853763,0.
 01259833,-0.01113614,0.00084209,-0.00222152,-0.00124228,0.00815643,-0.
 02199968,0.01511938,-0.06503851,0.07289409,-0.05044685,0.00089242,0.00
 332729,0.00194830,0.00078720,0.00272046,0.00132548,-0.00082363,-0.0046
 5727,-0.00192123,0.06746130,0.00263643,-0.01369142,0.00626849,0.000887
 81,0.00100758,0.00242035,0.00472102,-0.01325023,0.00514340,0.07062111,
 -0.23776592,0.11336517,-0.00178603,-0.00180555,-0.00051582,-0.00041632
 ,0.00152368,0.00074521,0.00036891,-0.00151964,-0.00165251,-0.07467386,
 0.25677529,0.00589570,-0.01613312,0.01254224,0.00074669,0.00201883,0.0
 0020090,-0.00200024,0.00252624,-0.00519616,-0.05035064,0.11646584,-0.1
 1748311,-0.00074088,-0.00321737,-0.00121252,-0.00053807,-0.00130204,0.
 00103511,0.00071729,0.00116563,0.00069709,0.05109168,-0.12220715,0.120
 52680,0.00994538,0.00004298,0.01845597,0.00055103,0.00400394,0.0005313
 7,-0.01307730,-0.00107336,-0.02077587,-0.11284529,-0.02247392,-0.13065
 559,-0.00000294,-0.00192931,-0.00069018,-0.00037231,-0.00460118,-0.001
 20648,0.00142527,0.00237873,0.00130708,-0.00389870,-0.00191287,-0.0053
 0707,0.11856354,-0.00917491,-0.00570046,-0.01416045,-0.00111074,-0.002
 70239,0.00179906,-0.00760646,-0.00527641,-0.01473850,-0.02080847,-0.05
 610070,-0.03447687,0.00088679,0.00143007,-0.00071357,0.00053989,-0.002
 19505,-0.00109482,-0.00094466,0.00184153,0.00055375,0.01250489,0.00725
 412,0.02096920,0.02556416,0.06049452,-0.00899674,-0.00031545,-0.013315
 23,-0.00041453,-0.00295999,0.00011368,0.00638182,-0.00032547,0.0087002
 0,-0.13069465,-0.03784059,-0.25387713,0.00063399,0.00125734,0.00145758
 ,0.00105284,0.00192011,0.00085158,-0.00016202,-0.00120139,0.00032446,-
 0.00506827,-0.00308008,-0.00933854,0.13711032,0.04272294,0.26588460,0.
 00817621,-0.00055814,-0.00273512,-0.05303838,0.02517943,-0.01496909,-0
 .00119770,0.00069882,0.00090852,-0.00042593,0.00050581,0.00081595,-0.0
 0024189,0.00017803,0.00012656,0.00071253,-0.00024381,-0.00054572,0.000
 35894,-0.00004235,0.00025520,-0.00011341,-0.00040825,0.00017797,0.0000
 7386,-0.00019420,0.00003890,0.10646727,-0.00248188,0.00490216,0.010583
 46,0.02514049,-0.39090647,0.19935854,0.00355712,-0.00024748,-0.0033663
 3,-0.00017000,0.00084880,0.00074363,-0.00005070,0.00164838,-0.00240986
 ,-0.00051636,0.00008307,0.00029461,-0.00017925,-0.00003763,-0.00036042
 ,0.00030131,0.00016858,-0.00064271,0.00004524,0.00029012,-0.00009009,-
 0.03994790,0.76077963,0.00132862,0.02688746,-0.02817664,-0.01647859,0.
 20730769,-0.26173683,-0.00361211,0.00393569,-0.00079934,-0.00179987,0.
 00139271,0.00225081,-0.00025168,-0.00077862,-0.00401182,0.00053184,-0.
 00015840,0.00030614,0.00143389,-0.00081297,-0.00076024,0.00000909,-0.0
 0039391,-0.00084816,0.00005684,-0.00009930,0.00001502,0.01533669,-0.09
 636939,0.71053271,0.00222136,0.00158930,0.00152280,-0.04286471,0.01652
 196,0.00524007,0.00065233,-0.00137757,-0.00176737,0.00267970,0.0001430
 2,-0.00009280,0.00038550,-0.00027916,0.00066207,-0.00028454,0.00017697
 ,0.00025183,-0.00009306,0.00003437,0.00004518,0.00007243,0.00000876,0.
 00000488,-0.00041890,0.00029137,0.00027807,0.00681156,0.00139670,0.001
 90848,0.02705430,-0.00013712,0.00140380,0.00051672,0.01642438,-0.27178
 093,-0.09854894,0.00050730,0.00005562,-0.00075638,-0.00056881,0.001240
 28,0.00083269,-0.00006029,0.00045014,-0.00056931,0.00003836,-0.0000310
 5,-0.00013398,0.00013512,-0.00007019,-0.00007854,-0.00011961,0.0000507
 3,0.00019797,0.00015538,0.00012862,0.00001458,0.00181630,-0.02392527,-
 0.01195774,-0.01878723,0.29344225,0.00277384,-0.02979927,-0.01355206,0
 .00708809,-0.10269351,-0.10245587,0.00030522,0.00023236,0.00103974,-0.
 00241114,0.00182210,-0.00430572,-0.00038671,0.00070102,0.00090475,0.00
 053448,0.00010550,-0.00009835,0.00010302,0.00000437,-0.00009546,-0.000
 25183,0.00001320,0.00040895,0.00125006,-0.00060720,-0.00093262,-0.0011
 0823,0.02001610,0.00996642,-0.00765973,0.10693395,0.10946380,-0.007497
 40,-0.00021179,0.00068936,0.00609123,0.00291793,0.00032528,-0.00014650
 ,-0.00040385,0.00161065,-0.00037950,-0.00125852,-0.00051819,0.00017536
 ,0.00035210,-0.00084745,0.00003523,-0.00022514,0.00002206,-0.00039559,
 0.00022326,0.00028113,0.00024741,0.00020991,0.00018470,0.00009412,0.00
 001918,-0.00010743,-0.03527883,0.01115714,0.00372942,0.01157092,0.0013
 8000,-0.00029145,0.02365890,-0.00040509,0.00061629,-0.00215316,0.00145
 084,-0.02284067,-0.01094238,0.00005092,-0.00011975,-0.00020630,0.00024
 882,0.00038919,0.00006876,-0.00003428,0.00007552,0.00005588,-0.0000053
 1,-0.00010892,0.00004658,0.00005783,0.00018714,0.00007469,-0.00030685,
 0.00080291,-0.00004041,-0.00014414,0.00031215,-0.00004627,0.01206993,-
 0.29357693,-0.09257680,0.00086726,-0.00225854,0.00330847,-0.01394910,0
 .31633684,0.00060474,0.00029003,0.00032435,-0.00089115,0.01744945,0.01
 213824,-0.00020217,0.00017158,0.00028969,-0.00008149,0.00030990,-0.000
 55625,-0.00005501,-0.00024043,0.00013630,-0.00002716,-0.00004112,0.000
 02882,0.00002426,-0.00010576,-0.00006548,0.00062376,-0.00012407,-0.001
 51948,-0.00009518,-0.00019465,0.00020220,0.00413278,-0.09653437,-0.095
 21961,-0.00046453,0.00319346,-0.00153562,-0.00489130,0.10157448,0.0925
 2880,0.01290712,0.00017872,-0.00046483,0.00273130,-0.00085066,-0.00158
 054,-0.00011066,0.00106596,-0.00259626,-0.00002686,0.00033228,0.000804
 94,-0.00029880,0.00002557,0.00186345,-0.00025655,0.00025797,0.00005542
 ,0.00052588,-0.00045237,-0.00052488,-0.00004738,-0.00025663,0.00011799
 ,-0.00003775,0.00003316,-0.00005228,-0.03230424,0.00174809,-0.00219262
 ,-0.00778687,-0.00078378,0.00005437,0.00182464,0.00009917,0.00132245,0
 .02288017,0.00115090,-0.00344858,0.00075261,0.00009465,0.00467612,0.02
 906128,0.00020439,-0.00018517,-0.00008546,0.00033821,-0.00004526,-0.00
 021811,-0.00000897,0.00000685,0.00097202,-0.00004971,-0.00000462,-0.00
 002210,-0.00005815,0.00019865,0.00010806,-0.00036759,0.00044988,0.0001
 9909,-0.00005567,0.00022387,-0.00005564,0.00094631,-0.06002696,-0.0363
 7643,-0.00058574,0.00129455,-0.00003710,-0.00021114,0.00018476,-0.0257
 4848,-0.00139749,0.05667592,-0.00070695,0.00238696,0.00083760,0.000001
 09,-0.00455208,-0.01673006,-0.00009043,0.00033825,-0.00040398,-0.00027
 831,0.00020149,0.00055793,0.00022190,0.00021747,-0.00074945,0.00005151
 ,-0.00003405,0.00003076,0.00019095,-0.00003527,-0.00004981,-0.00005109
 ,0.00001775,0.00018689,0.00001871,0.00004040,-0.00008580,-0.00243442,-
 0.03122317,-0.33151848,0.00007105,0.00035553,0.00119205,-0.00018678,0.
 00083645,-0.00675197,0.00319278,0.03145027,0.35348432\\0.00012211,0.00
 015179,-0.00003901,-0.00015732,-0.00007167,0.00000313,-0.00000233,-0.0
 0006621,0.00001930,-0.00000121,-0.00001805,0.00000449,-0.00000876,-0.0
 0000268,0.00001176,0.00000189,0.00000342,-0.00000153,-0.00000037,-0.00
 000385,-0.00000248,-0.00000068,0.00000206,0.00000013,0.00000141,0.0000
 0401,-0.00000088,0.00007132,-0.00001104,0.00001359,0.00001508,0.000001
 98,0.00000033,-0.00002203,0.00000409,-0.00000742,-0.00001910,0.0000061
 7,-0.00000141\\\@


 IT IS NOT EASY TO DESCRIBE
     THE SEA WITH THE MOUTH

                   -- KOKYU
 Job cpu time:       0 days  0 hours 25 minutes 50.0 seconds.
 Elapsed time:       0 days  0 hours  2 minutes  9.6 seconds.
 File lengths (MBytes):  RWF=     52 Int=      0 D2E=      0 Chk=     32 Scr=      1
 Normal termination of Gaussian 16 at Fri Jun 10 11:05:55 2022.
