 Entering Gaussian System, Link 0=g16
 Input=ts_zmat_field_N75.gjf
 Output=ts_zmat_field_N75.out
 Initial command:
 /software/gaussian/g16-a03/l1.exe "/local_scratch/11171892/Gau-18799.inp" -scrdir="/local_scratch/11171892/"
 Entering Link 1 = /software/gaussian/g16-a03/l1.exe PID=     18800.
  
 Copyright (c) 1988,1990,1992,1993,1995,1998,2003,2009,2016,
            Gaussian, Inc.  All Rights Reserved.
  
 This is part of the Gaussian(R) 16 program.  It is based on
 the Gaussian(R) 09 system (copyright 2009, Gaussian, Inc.),
 the Gaussian(R) 03 system (copyright 2003, Gaussian, Inc.),
 the Gaussian(R) 98 system (copyright 1998, Gaussian, Inc.),
 the Gaussian(R) 94 system (copyright 1995, Gaussian, Inc.),
 the Gaussian 92(TM) system (copyright 1992, Gaussian, Inc.),
 the Gaussian 90(TM) system (copyright 1990, Gaussian, Inc.),
 the Gaussian 88(TM) system (copyright 1988, Gaussian, Inc.),
 the Gaussian 86(TM) system (copyright 1986, Carnegie Mellon
 University), and the Gaussian 82(TM) system (copyright 1983,
 Carnegie Mellon University). Gaussian is a federally registered
 trademark of Gaussian, Inc.
  
 This software contains proprietary and confidential information,
 including trade secrets, belonging to Gaussian, Inc.
  
 This software is provided under written license and may be
 used, copied, transmitted, or stored only in accord with that
 written license.
  
 The following legend is applicable only to US Government
 contracts under FAR:
  
                    RESTRICTED RIGHTS LEGEND
  
 Use, reproduction and disclosure by the US Government is
 subject to restrictions as set forth in subparagraphs (a)
 and (c) of the Commercial Computer Software - Restricted
 Rights clause in FAR 52.227-19.
  
 Gaussian, Inc.
 340 Quinnipiac St., Bldg. 40, Wallingford CT 06492
  
  
 ---------------------------------------------------------------
 Warning -- This program may not be used in any manner that
 competes with the business of Gaussian, Inc. or will provide
 assistance to any competitor of Gaussian, Inc.  The licensee
 of this program is prohibited from giving any competitor of
 Gaussian, Inc. access to this program.  By using this program,
 the user acknowledges that Gaussian, Inc. is engaged in the
 business of creating and licensing software in the field of
 computational chemistry and represents and warrants to the
 licensee that it is not a competitor of Gaussian, Inc. and that
 it will not use this program in any manner prohibited above.
 ---------------------------------------------------------------
  

 Cite this work as:
 Gaussian 16, Revision A.03,
 M. J. Frisch, G. W. Trucks, H. B. Schlegel, G. E. Scuseria, 
 M. A. Robb, J. R. Cheeseman, G. Scalmani, V. Barone, 
 G. A. Petersson, H. Nakatsuji, X. Li, M. Caricato, A. V. Marenich, 
 J. Bloino, B. G. Janesko, R. Gomperts, B. Mennucci, H. P. Hratchian, 
 J. V. Ortiz, A. F. Izmaylov, J. L. Sonnenberg, D. Williams-Young, 
 F. Ding, F. Lipparini, F. Egidi, J. Goings, B. Peng, A. Petrone, 
 T. Henderson, D. Ranasinghe, V. G. Zakrzewski, J. Gao, N. Rega, 
 G. Zheng, W. Liang, M. Hada, M. Ehara, K. Toyota, R. Fukuda, 
 J. Hasegawa, M. Ishida, T. Nakajima, Y. Honda, O. Kitao, H. Nakai, 
 T. Vreven, K. Throssell, J. A. Montgomery, Jr., J. E. Peralta, 
 F. Ogliaro, M. J. Bearpark, J. J. Heyd, E. N. Brothers, K. N. Kudin, 
 V. N. Staroverov, T. A. Keith, R. Kobayashi, J. Normand, 
 K. Raghavachari, A. P. Rendell, J. C. Burant, S. S. Iyengar, 
 J. Tomasi, M. Cossi, J. M. Millam, M. Klene, C. Adamo, R. Cammi, 
 J. W. Ochterski, R. L. Martin, K. Morokuma, O. Farkas, 
 J. B. Foresman, and D. J. Fox, Gaussian, Inc., Wallingford CT, 2016.
 
 ******************************************
 Gaussian 16:  ES64L-G16RevA.03 25-Dec-2016
                10-Jun-2022 
 ******************************************
 %nprocshared=12
 Will use up to   12 processors via shared memory.
 %chk=checkpoint.chk
 %mem=12GB
 ----------------------------------------------------------------------
 # Opt=(TS, CalcFC, noeigentest, Z-matrix, MaxStep=10) geom=allcheckpoi
 nt guess=read Field=read NoSymm B3LYP/Def2TZVP freq=noraman pop=none
 ----------------------------------------------------------------------
 1/5=1,8=10,10=4,11=1,18=40,26=3,29=7,38=1/1,3;
 2/12=2,15=1,29=3,40=1/2;
 3/5=44,7=101,11=2,14=-6,25=1,30=1,71=2,74=-5,116=-2,140=1/1,2,3;
 4/5=1/1;
 5/5=2,38=6/2;
 8/6=4,10=90,11=11/1;
 11/6=1,8=1,9=11,15=111,16=1,31=1/1,2,10;
 10/6=1,13=1,31=1/2;
 7/10=1,18=20,25=1,30=1/1,2,3,16;
 1/5=1,8=10,10=4,11=1,18=40,26=3/3(2);
 2/15=1,29=3/2;
 99//99;
 2/15=1,29=3/2;
 3/5=44,7=101,11=2,14=-2,25=1,30=1,71=1,74=-5/1,2,3;
 4/5=5,16=3,69=1/1;
 5/5=2,38=5/2;
 7/30=1/1,2,3,16;
 1/5=1,8=10,11=1,18=40,26=3/3(-5);
 2/15=1,29=3/2;
 99/9=1/99;
 Structure from the checkpoint file:  "checkpoint.chk"
 -----------------
 ts_zmat_initalOpt
 -----------------
 Charge =  0 Multiplicity = 1
 Z-Matrix found in chk file.
 C
 C,1,R2
 C,1,R3,2,A3
 H,1,R4,2,A4,3,D4,0
 C,3,R5,1,A5,2,D5,0
 H,3,R6,1,A6,5,D6,0
 H,3,R7,1,A7,5,D7,0
 C,2,R8,1,A8,3,D8,0
 H,2,R9,1,A9,8,D9,0
 H,5,R10,3,A10,1,D10,0
 H,5,R11,3,A11,10,D11,0
 H,8,R12,2,A12,1,D12,0
 H,8,R13,2,A13,12,D13,0
      Variables:
 R2=1.3874405
 R3=1.50663317
 R4=1.08621269
 R5=1.45692264
 R6=1.09255062
 R7=1.09541198
 R8=1.3722661
 R9=1.09300251
 R10=1.07905937
 R11=1.08042499
 R12=1.0768077
 R13=1.08525895
 A3=123.67872846
 A4=118.92994216
 A5=103.37152718
 A6=112.28903751
 A7=107.72739941
 A8=128.08829922
 A9=114.48153081
 A10=122.86625578
 A11=119.01451275
 A12=121.02194735
 A13=120.97764798
 D4=-178.42732272
 D5=49.56397897
 D6=-123.37309528
 D7=118.29179674
 D8=-30.16671368
 D9=177.72228945
 D10=-113.08303908
 D11=179.59184772
 D12=-34.78684388
 D13=-168.81692387
 Recover connectivity data from disk.

 GradGradGradGradGradGradGradGradGradGradGradGradGradGradGradGradGradGrad
 Berny optimization.
 Initialization pass.
                       ----------------------------
                       !    Initial Parameters    !
                       ! (Angstroms and Degrees)  !
 ----------------------                            ----------------------
 !      Name          Value   Derivative information (Atomic Units)     !
 ------------------------------------------------------------------------
 !       R2          1.3874   calculate D2E/DX2 analytically            !
 !       R3          1.5066   calculate D2E/DX2 analytically            !
 !       R4          1.0862   calculate D2E/DX2 analytically            !
 !       R5          1.4569   calculate D2E/DX2 analytically            !
 !       R6          1.0926   calculate D2E/DX2 analytically            !
 !       R7          1.0954   calculate D2E/DX2 analytically            !
 !       R8          1.3723   calculate D2E/DX2 analytically            !
 !       R9          1.093    calculate D2E/DX2 analytically            !
 !       R10         1.0791   calculate D2E/DX2 analytically            !
 !       R11         1.0804   calculate D2E/DX2 analytically            !
 !       R12         1.0768   calculate D2E/DX2 analytically            !
 !       R13         1.0853   calculate D2E/DX2 analytically            !
 !       A3        123.6787   calculate D2E/DX2 analytically            !
 !       A4        118.9299   calculate D2E/DX2 analytically            !
 !       A5        103.3715   calculate D2E/DX2 analytically            !
 !       A6        112.289    calculate D2E/DX2 analytically            !
 !       A7        107.7274   calculate D2E/DX2 analytically            !
 !       A8        128.0883   calculate D2E/DX2 analytically            !
 !       A9        114.4815   calculate D2E/DX2 analytically            !
 !       A10       122.8663   calculate D2E/DX2 analytically            !
 !       A11       119.0145   calculate D2E/DX2 analytically            !
 !       A12       121.0219   calculate D2E/DX2 analytically            !
 !       A13       120.9776   calculate D2E/DX2 analytically            !
 !       D4       -178.4273   calculate D2E/DX2 analytically            !
 !       D5         49.564    calculate D2E/DX2 analytically            !
 !       D6       -123.3731   calculate D2E/DX2 analytically            !
 !       D7        118.2918   calculate D2E/DX2 analytically            !
 !       D8        -30.1667   calculate D2E/DX2 analytically            !
 !       D9        177.7223   calculate D2E/DX2 analytically            !
 !       D10      -113.083    calculate D2E/DX2 analytically            !
 !       D11       179.5918   calculate D2E/DX2 analytically            !
 !       D12       -34.7868   calculate D2E/DX2 analytically            !
 !       D13      -168.8169   calculate D2E/DX2 analytically            !
 ------------------------------------------------------------------------
 Trust Radius=1.00D-01 FncErr=1.00D-07 GrdErr=1.00D-06 EigMax=2.50D+02 EigMin=1.00D-04
 Number of steps in this run=     43 maximum allowed number of steps=    100.
 Search for a saddle point of order  1.
 GradGradGradGradGradGradGradGradGradGradGradGradGradGradGradGradGradGrad

 ---------------------------------------------------------------------------------------------------
                            Z-MATRIX (ANGSTROMS AND DEGREES)
   CD    Cent   Atom    N1       Length/X        N2       Alpha/Y        N3        Beta/Z          J
 ---------------------------------------------------------------------------------------------------
      1      1  C 
      2      2  C        1   1.387441(     1)
      3      3  C        1   1.506633(     2)      2  123.679(    13)
      4      4  H        1   1.086213(     3)      2  118.930(    14)      3 -178.427(    24)      0
      5      5  C        3   1.456923(     4)      1  103.372(    15)      2   49.564(    25)      0
      6      6  H        3   1.092551(     5)      1  112.289(    16)      5 -123.373(    26)      0
      7      7  H        3   1.095412(     6)      1  107.727(    17)      5  118.292(    27)      0
      8      8  C        2   1.372266(     7)      1  128.088(    18)      3  -30.167(    28)      0
      9      9  H        2   1.093003(     8)      1  114.482(    19)      8  177.722(    29)      0
     10     10  H        5   1.079059(     9)      3  122.866(    20)      1 -113.083(    30)      0
     11     11  H        5   1.080425(    10)      3  119.015(    21)     10  179.592(    31)      0
     12     12  H        8   1.076808(    11)      2  121.022(    22)      1  -34.787(    32)      0
     13     13  H        8   1.085259(    12)      2  120.978(    23)     12 -168.817(    33)      0
 ---------------------------------------------------------------------------------------------------
                         Z-Matrix orientation:                         
 ---------------------------------------------------------------------
 Center     Atomic      Atomic             Coordinates (Angstroms)
 Number     Number       Type             X           Y           Z
 ---------------------------------------------------------------------
      1          6           0        0.000000    0.000000    0.000000
      2          6           0        0.000000    0.000000    1.387441
      3          6           0        1.253760    0.000000   -0.835482
      4          1           0       -0.950308    0.026091   -0.525444
      5          6           0        2.043951   -1.078847   -0.257285
      6          1           0        1.754906    0.970823   -0.830700
      7          1           0        0.965666   -0.219503   -1.869284
      8          6           0        0.933782   -0.542748    2.233957
      9          1           0       -0.839470    0.533657    1.840381
     10          1           0        2.971602   -0.909132    0.267148
     11          1           0        1.688855   -2.095215   -0.347958
     12          1           0        1.451039   -1.452344    1.979802
     13          1           0        1.046375   -0.177262    3.249600
 ---------------------------------------------------------------------
                    Distance matrix (angstroms):
                    1          2          3          4          5
     1  C    0.000000
     2  C    1.387441   0.000000
     3  C    1.506633   2.552116   0.000000
     4  H    1.086213   2.136093   2.225920   0.000000
     5  C    2.325476   2.836682   1.456923   3.202871   0.000000
     6  H    2.170772   2.990374   1.092551   2.881646   2.147905
     7  H    2.115400   3.403961   1.095412   2.353122   2.121252
     8  C    2.481348   1.372266   3.133435   3.389346   2.779598
     9  H    2.092009   1.093003   3.438988   2.422197   3.913372
    10  H    3.119023   3.303331   2.234568   4.109041   1.079059
    11  H    2.713528   3.202150   2.194747   3.390667   1.080425
    12  H    2.852093   2.136752   3.173963   3.772068   2.344270
    13  H    3.418512   2.143353   4.094181   4.275401   3.755829
                    6          7          8          9         10
     6  H    0.000000
     7  H    1.765908   0.000000
     8  C    3.515290   4.116078   0.000000
     9  H    3.749209   4.193731   2.111391   0.000000
    10  H    2.493963   3.010599   2.855746   4.368177   0.000000
    11  H    3.104511   2.521057   3.105894   4.253495   1.852184
    12  H    3.723304   4.070743   1.076808   3.034810   2.353800
    13  H    4.297552   5.119695   1.085259   2.459211   3.624521
                   11         12         13
    11  H    0.000000
    12  H    2.426584   0.000000
    13  H    4.127196   1.844444   0.000000
 Symmetry turned off by external request.
 Stoichiometry    C5H8
 Framework group  C1[X(C5H8)]
 Deg. of freedom    33
 Full point group                 C1      NOp   1
 Rotational constants (GHZ):           8.5101549           4.4790345           3.1871913
 Standard basis: def2TZVP (5D, 7F)
 The following finite field(s) will be applied:
 An electric field of              0.0037 -0.0002  0.0065
   203 basis functions,   319 primitive gaussians,   228 cartesian basis functions
    19 alpha electrons       19 beta electrons
       nuclear repulsion energy       161.9707699982 Hartrees.
 NAtoms=   13 NActive=   13 NUniq=   13 SFac= 1.00D+00 NAtFMM=   60 NAOKFM=F Big=F
 Integral buffers will be    131072 words long.
 Raffenetti 2 integral format.
 Two-electron integral symmetry is turned off.
 One-electron integrals computed using PRISM.
   1 Symmetry operations used in ECPInt.
 ECPInt:  NShTT=    3828 NPrTT=   11160 LenC2=    3812 LenP2D=    9470.
 LDataN:  DoStor=T MaxTD1= 6 Len=  172
 NBasis=   203 RedAO= T EigKep=  1.51D-04  NBF=   203
 NBsUse=   203 1.00D-06 EigRej= -1.00D+00 NBFU=   203
 The nuclear repulsion energy is now       162.4445709690 hartrees.
 Initial guess from the checkpoint file:  "checkpoint.chk"
 B after Tr=     0.000000   -0.000000    0.000000
         Rot=    1.000000    0.000000    0.000000   -0.000000 Ang=   0.00 deg.
 Requested convergence on RMS density matrix=1.00D-08 within 128 cycles.
 Requested convergence on MAX density matrix=1.00D-06.
 Requested convergence on             energy=1.00D-06.
 No special actions if energy rises.
 SCF Done:  E(RB3LYP) =  -195.280071210     A.U. after   10 cycles
            NFock= 10  Conv=0.71D-08     -V/T= 2.0056
 DoSCS=F DFT=T ScalE2(SS,OS)=  1.000000  1.000000
 Range of M.O.s used for correlation:     1   203
 NBasis=   203 NAE=    19 NBE=    19 NFC=     0 NFV=     0
 NROrb=    203 NOA=    19 NOB=    19 NVA=   184 NVB=   184

 **** Warning!!: The largest alpha MO coefficient is  0.20668041D+02

   1 Symmetry operations used in ECPInt.
 ECPInt:  NShTT=    3828 NPrTT=   11160 LenC2=    3812 LenP2D=    9470.
 LDataN:  DoStor=T MaxTD1= 7 Len=  274
 Symmetrizing basis deriv contribution to polar:
 IMax=3 JMax=2 DiffMx= 0.00D+00
 G2DrvN: will do    14 centers at a time, making    1 passes.
 Calling FoFCou, ICntrl=  3107 FMM=F I1Cent=   0 AccDes= 0.00D+00.
 End of G2Drv F.D. properties file   721 does not exist.
 End of G2Drv F.D. properties file   722 does not exist.
 End of G2Drv F.D. properties file   788 does not exist.
          IDoAtm=1111111111111
          Differentiating once with respect to nuclear coordinates.
 Keep R1 ints in memory in canonical form, NReq=227048987.
          There are    42 degrees of freedom in the 1st order CPHF.  IDoFFX=6 NUNeed=     0.
     36 vectors produced by pass  0 Test12= 8.32D-15 2.38D-09 XBig12= 1.33D-01 1.35D-01.
 AX will form    36 AO Fock derivatives at one time.
     36 vectors produced by pass  1 Test12= 8.32D-15 2.38D-09 XBig12= 2.49D-02 6.26D-02.
     36 vectors produced by pass  2 Test12= 8.32D-15 2.38D-09 XBig12= 2.65D-04 2.99D-03.
     36 vectors produced by pass  3 Test12= 8.32D-15 2.38D-09 XBig12= 1.10D-06 2.48D-04.
     36 vectors produced by pass  4 Test12= 8.32D-15 2.38D-09 XBig12= 2.16D-09 6.22D-06.
     30 vectors produced by pass  5 Test12= 8.32D-15 2.38D-09 XBig12= 3.13D-12 2.50D-07.
      4 vectors produced by pass  6 Test12= 8.32D-15 2.38D-09 XBig12= 4.78D-15 7.77D-09.
 InvSVY:  IOpt=1 It=  1 EMax= 1.89D-15
 Solved reduced A of dimension   214 with    36 vectors.
 End of Minotr F.D. properties file   721 does not exist.
 End of Minotr F.D. properties file   722 does not exist.
 End of Minotr F.D. properties file   788 does not exist.
   1 Symmetry operations used in ECPInt.
 ECPInt:  NShTT=    3828 NPrTT=   11160 LenC2=    3812 LenP2D=    9470.
 LDataN:  DoStor=T MaxTD1= 8 Len=  415
 Calling FoFJK, ICntrl=    100147 FMM=F ISym2X=0 I1Cent= 0 IOpClX= 0 NMat=1 NMatS=1 NMatT=0.
 -------------------------------------------------------------------
 Center     Atomic                   Forces (Hartrees/Bohr)
 Number     Number              X              Y              Z
 -------------------------------------------------------------------
      1        6          -0.000767508   -0.000288228    0.000455655
      2        6          -0.000040212    0.000514623   -0.000749361
      3        6           0.000631887   -0.000125222   -0.000016147
      4        1           0.000232855   -0.000005050   -0.000013771
      5        6          -0.000676742    0.000269657   -0.000195650
      6        1          -0.000160986   -0.000033538   -0.000137343
      7        1          -0.000019715    0.000050257    0.000108719
      8        6           0.000877502   -0.000516929    0.000269758
      9        1          -0.000093645   -0.000013752   -0.000187011
     10        1           0.000185924    0.000051669   -0.000049472
     11        1          -0.000007750   -0.000025259   -0.000084004
     12        1          -0.000043046   -0.000018219    0.000142214
     13        1          -0.000118564    0.000139991    0.000456412
 -------------------------------------------------------------------
 Cartesian Forces:  Max     0.000877502 RMS     0.000330996
 -----------------------------------------------------------------------------------------------
                       Internal Coordinate Forces (Hartree/Bohr or radian)
  Cent   Atom   N1       Length/X         N2         Alpha/Y        N3         Beta/Z          J
 -----------------------------------------------------------------------------------------------
      1  C 
      2  C        1  -0.000068(     1)
      3  C        1   0.000168(     2)      2   0.001350(    13)
      4  H        1  -0.000197(     3)      2   0.000256(    14)      3   0.000002(    24)     0
      5  C        3  -0.000620(     4)      1  -0.000053(    15)      2   0.000373(    25)     0
      6  H        3  -0.000104(     5)      1  -0.000041(    16)      5  -0.000356(    26)     0
      7  H        3  -0.000107(     6)      1  -0.000096(    17)      5   0.000064(    27)     0
      8  C        2   0.001179(     7)      1   0.000951(    18)      3   0.000173(    28)     0
      9  H        2  -0.000012(     8)      1  -0.000413(    19)      8   0.000116(    29)     0
     10  H        5   0.000144(     9)      3  -0.000085(    20)      1  -0.000098(    30)     0
     11  H        5   0.000033(    10)      3  -0.000082(    21)     10   0.000127(    31)     0
     12  H        8  -0.000039(    11)      2   0.000203(    22)      1   0.000047(    32)     0
     13  H        8   0.000462(    12)      2  -0.000221(    23)     12   0.000229(    33)     0
 -----------------------------------------------------------------------------------------------
 Internal  Forces:  Max     0.001349637 RMS     0.000411191

 GradGradGradGradGradGradGradGradGradGradGradGradGradGradGradGradGradGrad
 Berny optimization.
 Search for a saddle point.
 Step number   1 out of a maximum of   43
 All quantities printed in internal units (Hartrees-Bohrs-Radians)
 Swapping is turned off.
 Second derivative matrix not updated -- analytic derivatives used.
 ITU=  0
     Eigenvalues ---   -0.15380   0.01424   0.01609   0.02496   0.04210
     Eigenvalues ---    0.05792   0.07664   0.10141   0.11704   0.11817
     Eigenvalues ---    0.13508   0.15061   0.17363   0.19502   0.21944
     Eigenvalues ---    0.24481   0.28334   0.29196   0.31496   0.32485
     Eigenvalues ---    0.32602   0.33691   0.34822   0.35137   0.36423
     Eigenvalues ---    0.36848   0.37095   0.39036   0.40063   0.41107
     Eigenvalues ---    0.44739   0.53412   0.88810
 Eigenvectors required to have negative eigenvalues:
                          D5        D12       A5        D10       A3
   1                    0.67606   0.35588  -0.34844   0.25266   0.24868
                          D4        A8        R2        D9        R8
   1                   -0.21281   0.19635   0.14875  -0.11990  -0.11362
 RFO step:  Lambda0=2.889766843D-06 Lambda=-1.96789031D-05.
 Linear search not attempted -- option 19 set.
 Variable       Old X    -DE/DX   Delta X   Delta X   Delta X     New X
                                 (Linear)    (Quad)   (Total)
    R2        2.62188  -0.00007   0.00000  -0.00160  -0.00160   2.62029
    R3        2.84712   0.00017   0.00000   0.00123   0.00123   2.84835
    R4        2.05264  -0.00020   0.00000  -0.00049  -0.00049   2.05215
    R5        2.75318  -0.00062   0.00000  -0.00236  -0.00236   2.75082
    R6        2.06462  -0.00010   0.00000  -0.00038  -0.00038   2.06424
    R7        2.07003  -0.00011   0.00000  -0.00011  -0.00011   2.06992
    R8        2.59321   0.00118   0.00000   0.00278   0.00278   2.59599
    R9        2.06548  -0.00001   0.00000   0.00000   0.00000   2.06548
   R10        2.03913   0.00014   0.00000   0.00043   0.00043   2.03956
   R11        2.04171   0.00003   0.00000   0.00003   0.00003   2.04174
   R12        2.03487  -0.00004   0.00000  -0.00008  -0.00008   2.03479
   R13        2.05084   0.00046   0.00000   0.00126   0.00126   2.05210
    A3        2.15860   0.00135   0.00000   0.00248   0.00248   2.16109
    A4        2.07572   0.00026   0.00000  -0.00018  -0.00018   2.07554
    A5        1.80417  -0.00005   0.00000  -0.00017  -0.00017   1.80400
    A6        1.95981  -0.00004   0.00000   0.00037   0.00037   1.96019
    A7        1.88020  -0.00010   0.00000  -0.00253  -0.00253   1.87767
    A8        2.23556   0.00095   0.00000   0.00207   0.00207   2.23763
    A9        1.99808  -0.00041   0.00000  -0.00251  -0.00251   1.99557
   A10        2.14442  -0.00009   0.00000   0.00013   0.00013   2.14455
   A11        2.07720  -0.00008   0.00000  -0.00027  -0.00027   2.07693
   A12        2.11223   0.00020   0.00000   0.00110   0.00110   2.11333
   A13        2.11146  -0.00022   0.00000  -0.00218  -0.00218   2.10928
    D4       -3.11414   0.00000   0.00000  -0.00256  -0.00256  -3.11670
    D5        0.86505   0.00037   0.00000  -0.00416  -0.00416   0.86090
    D6       -2.15327  -0.00036   0.00000  -0.00396  -0.00396  -2.15723
    D7        2.06458   0.00006   0.00000  -0.00147  -0.00147   2.06311
    D8       -0.52651   0.00017   0.00000   0.00683   0.00683  -0.51968
    D9        3.10184   0.00012   0.00000  -0.00001  -0.00001   3.10183
   D10       -1.97367  -0.00010   0.00000  -0.00494  -0.00494  -1.97861
   D11        3.13447   0.00013   0.00000   0.00719   0.00719   3.14166
   D12       -0.60714   0.00005   0.00000  -0.00563  -0.00563  -0.61278
   D13       -2.94641   0.00023   0.00000   0.00696   0.00696  -2.93945
         Item               Value     Threshold  Converged?
 Maximum Force            0.001350     0.000450     NO 
 RMS     Force            0.000411     0.000300     NO 
 Maximum Displacement     0.007189     0.001800     NO 
 RMS     Displacement     0.002983     0.001200     NO 
 Predicted change in Energy=-8.394539D-06
 GradGradGradGradGradGradGradGradGradGradGradGradGradGradGradGradGradGrad

 ---------------------------------------------------------------------------------------------------
                            Z-MATRIX (ANGSTROMS AND DEGREES)
   CD    Cent   Atom    N1       Length/X        N2       Alpha/Y        N3        Beta/Z          J
 ---------------------------------------------------------------------------------------------------
      1      1  C 
      2      2  C        1   1.386595(     1)
      3      3  C        1   1.507281(     2)      2  123.821(    13)
      4      4  H        1   1.085952(     3)      2  118.919(    14)      3 -178.574(    24)      0
      5      5  C        3   1.455671(     4)      1  103.362(    15)      2   49.326(    25)      0
      6      6  H        3   1.092351(     5)      1  112.310(    16)      5 -123.600(    26)      0
      7      7  H        3   1.095353(     6)      1  107.582(    17)      5  118.207(    27)      0
      8      8  C        2   1.373737(     7)      1  128.207(    18)      3  -29.775(    28)      0
      9      9  H        2   1.093004(     8)      1  114.338(    19)      8  177.722(    29)      0
     10     10  H        5   1.079288(     9)      3  122.874(    20)      1 -113.366(    30)      0
     11     11  H        5   1.080442(    10)      3  118.999(    21)     10  180.004(    31)      0
     12     12  H        8   1.076767(    11)      2  121.085(    22)      1  -35.110(    32)      0
     13     13  H        8   1.085924(    12)      2  120.853(    23)     12 -168.418(    33)      0
 ---------------------------------------------------------------------------------------------------
                         Z-Matrix orientation:                         
 ---------------------------------------------------------------------
 Center     Atomic      Atomic             Coordinates (Angstroms)
 Number     Number       Type             X           Y           Z
 ---------------------------------------------------------------------
      1          6           0        0.000000    0.000000    0.000000
      2          6           0        0.000000    0.000000    1.386595
      3          6           0        1.252219    0.000000   -0.838954
      4          1           0       -0.950240    0.023660   -0.525143
      5          6           0        2.045470   -1.074137   -0.259331
      6          1           0        1.749183    0.972752   -0.842218
      7          1           0        0.959619   -0.225414   -1.870154
      8          6           0        0.936948   -0.536060    2.236255
      9          1           0       -0.844054    0.528521    1.837034
     10          1           0        2.976429   -0.901065    0.258574
     11          1           0        1.693219   -2.091727   -0.347555
     12          1           0        1.457724   -1.445049    1.987337
     13          1           0        1.042715   -0.167826    3.252350
 ---------------------------------------------------------------------
                    Distance matrix (angstroms):
                    1          2          3          4          5
     1  C    0.000000
     2  C    1.386595   0.000000
     3  C    1.507281   2.553649   0.000000
     4  H    1.085952   2.135008   2.224829   0.000000
     5  C    2.324859   2.836687   1.455671   3.201576   0.000000
     6  H    2.171456   2.995580   1.092351   2.878923   2.148790
     7  H    2.114038   3.402660   1.095353   2.349181   2.119941
     8  C    2.483157   1.373737   3.137462   3.391178   2.783217
     9  H    2.089607   1.093004   3.440147   2.417860   3.913133
    10  H    3.120562   3.308093   2.233693   4.109508   1.079288
    11  H    2.713505   3.201498   2.193462   3.390320   1.080442
    12  H    2.857033   2.138695   3.180931   3.777294   2.351711
    13  H    3.419532   2.143936   4.100101   4.275277   3.762821
                    6          7          8          9         10
     6  H    0.000000
     7  H    1.765125   0.000000
     8  C    3.523243   4.118204   0.000000
     9  H    3.755079   4.191050   2.112979   0.000000
    10  H    2.495810   3.009237   2.864250   4.373939   0.000000
    11  H    3.104651   2.517856   3.109360   4.251575   1.852484
    12  H    3.733242   4.076255   1.076767   3.035746   2.364531
    13  H    4.308771   5.123501   1.085924   2.459251   3.638623
                   11         12         13
    11  H    0.000000
    12  H    2.434210   0.000000
    13  H    4.133264   1.844935   0.000000
 Symmetry turned off by external request.
 Stoichiometry    C5H8
 Framework group  C1[X(C5H8)]
 Deg. of freedom    33
 Full point group                 C1      NOp   1
 Rotational constants (GHZ):           8.5160279           4.4700930           3.1825960
 Standard basis: def2TZVP (5D, 7F)
 The following finite field(s) will be applied:
 An electric field of              0.0037 -0.0002  0.0065
   203 basis functions,   319 primitive gaussians,   228 cartesian basis functions
    19 alpha electrons       19 beta electrons
       nuclear repulsion energy       161.9224837119 Hartrees.
 NAtoms=   13 NActive=   13 NUniq=   13 SFac= 1.00D+00 NAtFMM=   60 NAOKFM=F Big=F
 Integral buffers will be    131072 words long.
 Raffenetti 2 integral format.
 Two-electron integral symmetry is turned off.
 One-electron integrals computed using PRISM.
   1 Symmetry operations used in ECPInt.
 ECPInt:  NShTT=    3828 NPrTT=   11160 LenC2=    3812 LenP2D=    9465.
 LDataN:  DoStor=T MaxTD1= 6 Len=  172
 NBasis=   203 RedAO= T EigKep=  1.51D-04  NBF=   203
 NBsUse=   203 1.00D-06 EigRej= -1.00D+00 NBFU=   203
 The nuclear repulsion energy is now       162.3958936418 hartrees.
 Initial guess from the checkpoint file:  "checkpoint.chk"
 B after Tr=    -0.002503   -0.003386   -0.001364
         Rot=    0.999998    0.001136   -0.000593   -0.001644 Ang=   0.24 deg.
 Requested convergence on RMS density matrix=1.00D-08 within 128 cycles.
 Requested convergence on MAX density matrix=1.00D-06.
 Requested convergence on             energy=1.00D-06.
 No special actions if energy rises.
 SCF Done:  E(RB3LYP) =  -195.280079605     A.U. after   10 cycles
            NFock= 10  Conv=0.33D-08     -V/T= 2.0056
   1 Symmetry operations used in ECPInt.
 ECPInt:  NShTT=    3828 NPrTT=   11160 LenC2=    3812 LenP2D=    9465.
 LDataN:  DoStor=T MaxTD1= 7 Len=  274
 Calling FoFJK, ICntrl=      2127 FMM=F ISym2X=0 I1Cent= 0 IOpClX= 0 NMat=1 NMatS=1 NMatT=0.
 -------------------------------------------------------------------
 Center     Atomic                   Forces (Hartrees/Bohr)
 Number     Number              X              Y              Z
 -------------------------------------------------------------------
      1        6          -0.000544208   -0.000336520   -0.000003749
      2        6           0.000540502    0.000215274    0.000000255
      3        6          -0.000000705    0.000126625   -0.000000913
      4        1           0.000000013   -0.000000247    0.000000077
      5        6           0.000002396   -0.000003706   -0.000000121
      6        1           0.000000083    0.000000014   -0.000000185
      7        1          -0.000000348   -0.000000104    0.000000029
      8        6           0.000003540   -0.000002359    0.000003381
      9        1           0.000000402    0.000000562    0.000000249
     10        1           0.000000729    0.000000608   -0.000000112
     11        1          -0.000000747   -0.000000390   -0.000000202
     12        1          -0.000000738   -0.000000335    0.000000020
     13        1          -0.000000920    0.000000577    0.000001272
 -------------------------------------------------------------------
 Cartesian Forces:  Max     0.000544208 RMS     0.000139963
 -----------------------------------------------------------------------------------------------
                       Internal Coordinate Forces (Hartree/Bohr or radian)
  Cent   Atom   N1       Length/X         N2         Alpha/Y        N3         Beta/Z          J
 -----------------------------------------------------------------------------------------------
      1  C 
      2  C        1   0.000005(     1)
      3  C        1   0.000002(     2)      2   0.000006(    13)
      4  H        1  -0.000000(     3)      2  -0.000000(    14)      3  -0.000000(    24)     0
      5  C        3   0.000004(     4)      1   0.000004(    15)      2   0.000004(    25)     0
      6  H        3   0.000000(     5)      1   0.000000(    16)      5  -0.000000(    26)     0
      7  H        3   0.000000(     6)      1  -0.000001(    17)      5  -0.000000(    27)     0
      8  C        2   0.000005(     7)      1   0.000007(    18)      3  -0.000004(    28)     0
      9  H        2   0.000000(     8)      1   0.000001(    19)      8  -0.000001(    29)     0
     10  H        5   0.000001(     9)      3  -0.000001(    20)      1  -0.000001(    30)     0
     11  H        5   0.000001(    10)      3  -0.000001(    21)     10  -0.000000(    31)     0
     12  H        8  -0.000000(    11)      2  -0.000001(    22)      1  -0.000000(    32)     0
     13  H        8   0.000001(    12)      2  -0.000002(    23)     12   0.000001(    33)     0
 -----------------------------------------------------------------------------------------------
 Internal  Forces:  Max     0.000006896 RMS     0.000002569

 GradGradGradGradGradGradGradGradGradGradGradGradGradGradGradGradGradGrad
 Berny optimization.
 Search for a saddle point.
 Step number   2 out of a maximum of   43
 All quantities printed in internal units (Hartrees-Bohrs-Radians)
 Swapping is turned off.
 Update second derivatives using D2CorN and points    1    2
 ITU=  0  0
     Eigenvalues ---   -0.15374   0.01423   0.01608   0.02501   0.04210
     Eigenvalues ---    0.05791   0.07663   0.10140   0.11704   0.11817
     Eigenvalues ---    0.13509   0.15063   0.17363   0.19502   0.21944
     Eigenvalues ---    0.24480   0.28335   0.29196   0.31496   0.32485
     Eigenvalues ---    0.32602   0.33691   0.34822   0.35137   0.36423
     Eigenvalues ---    0.36848   0.37096   0.39037   0.40063   0.41107
     Eigenvalues ---    0.44739   0.53409   0.88805
 Eigenvectors required to have negative eigenvalues:
                          D5        D12       A5        D10       A3
   1                    0.67599   0.35571  -0.34856   0.25256   0.24873
                          D4        A8        R2        D9        R8
   1                   -0.21300   0.19637   0.14870  -0.11994  -0.11366
 RFO step:  Lambda0=1.035421610D-10 Lambda= 0.00000000D+00.
 Linear search not attempted -- option 19 set.
 Variable       Old X    -DE/DX   Delta X   Delta X   Delta X     New X
                                 (Linear)    (Quad)   (Total)
    R2        2.62029   0.00001   0.00000   0.00000   0.00000   2.62029
    R3        2.84835   0.00000   0.00000  -0.00000  -0.00000   2.84835
    R4        2.05215  -0.00000   0.00000  -0.00000  -0.00000   2.05215
    R5        2.75082   0.00000   0.00000   0.00002   0.00002   2.75084
    R6        2.06424   0.00000   0.00000  -0.00000  -0.00000   2.06424
    R7        2.06992   0.00000   0.00000   0.00000   0.00000   2.06992
    R8        2.59599   0.00001   0.00000   0.00001   0.00001   2.59600
    R9        2.06548   0.00000   0.00000  -0.00000  -0.00000   2.06548
   R10        2.03956   0.00000   0.00000   0.00000   0.00000   2.03956
   R11        2.04174   0.00000   0.00000   0.00000   0.00000   2.04174
   R12        2.03479  -0.00000   0.00000  -0.00000  -0.00000   2.03479
   R13        2.05210   0.00000   0.00000   0.00000   0.00000   2.05210
    A3        2.16109   0.00001   0.00000  -0.00001  -0.00001   2.16108
    A4        2.07554  -0.00000   0.00000   0.00000   0.00000   2.07554
    A5        1.80400   0.00000   0.00000   0.00001   0.00001   1.80401
    A6        1.96019   0.00000   0.00000  -0.00000  -0.00000   1.96019
    A7        1.87767  -0.00000   0.00000  -0.00000  -0.00000   1.87766
    A8        2.23763   0.00001   0.00000  -0.00000  -0.00000   2.23763
    A9        1.99557   0.00000   0.00000   0.00001   0.00001   1.99557
   A10        2.14455  -0.00000   0.00000  -0.00000  -0.00000   2.14455
   A11        2.07693  -0.00000   0.00000  -0.00001  -0.00001   2.07692
   A12        2.11333  -0.00000   0.00000  -0.00000  -0.00000   2.11332
   A13        2.10928  -0.00000   0.00000  -0.00001  -0.00001   2.10927
    D4       -3.11670  -0.00000   0.00000   0.00004   0.00004  -3.11666
    D5        0.86090   0.00000   0.00000   0.00001   0.00001   0.86091
    D6       -2.15723  -0.00000   0.00000  -0.00001  -0.00001  -2.15724
    D7        2.06311  -0.00000   0.00000  -0.00000  -0.00000   2.06310
    D8       -0.51968  -0.00000   0.00000  -0.00004  -0.00004  -0.51972
    D9        3.10183  -0.00000   0.00000   0.00001   0.00001   3.10184
   D10       -1.97861  -0.00000   0.00000  -0.00003  -0.00003  -1.97864
   D11        3.14166  -0.00000   0.00000   0.00001   0.00001   3.14167
   D12       -0.61278  -0.00000   0.00000  -0.00003  -0.00003  -0.61280
   D13       -2.93945   0.00000   0.00000   0.00005   0.00005  -2.93940
         Item               Value     Threshold  Converged?
 Maximum Force            0.000007     0.000450     YES
 RMS     Force            0.000003     0.000300     YES
 Maximum Displacement     0.000048     0.001800     YES
 RMS     Displacement     0.000016     0.001200     YES
 Predicted change in Energy=-2.013204D-10
 Optimization completed.
    -- Stationary point found.
                       ----------------------------
                       !   Optimized Parameters   !
                       ! (Angstroms and Degrees)  !
 ----------------------                            ----------------------
 !      Name          Value   Derivative information (Atomic Units)     !
 ------------------------------------------------------------------------
 !       R2          1.3866   -DE/DX =    0.0                           !
 !       R3          1.5073   -DE/DX =    0.0                           !
 !       R4          1.086    -DE/DX =    0.0                           !
 !       R5          1.4557   -DE/DX =    0.0                           !
 !       R6          1.0924   -DE/DX =    0.0                           !
 !       R7          1.0954   -DE/DX =    0.0                           !
 !       R8          1.3737   -DE/DX =    0.0                           !
 !       R9          1.093    -DE/DX =    0.0                           !
 !       R10         1.0793   -DE/DX =    0.0                           !
 !       R11         1.0804   -DE/DX =    0.0                           !
 !       R12         1.0768   -DE/DX =    0.0                           !
 !       R13         1.0859   -DE/DX =    0.0                           !
 !       A3        123.8211   -DE/DX =    0.0                           !
 !       A4        118.9194   -DE/DX =    0.0                           !
 !       A5        103.3615   -DE/DX =    0.0                           !
 !       A6        112.3105   -DE/DX =    0.0                           !
 !       A7        107.5823   -DE/DX =    0.0                           !
 !       A8        128.2068   -DE/DX =    0.0                           !
 !       A9        114.3375   -DE/DX =    0.0                           !
 !       A10       122.8738   -DE/DX =    0.0                           !
 !       A11       118.9991   -DE/DX =    0.0                           !
 !       A12       121.0848   -DE/DX =    0.0                           !
 !       A13       120.853    -DE/DX =    0.0                           !
 !       D4       -178.5737   -DE/DX =    0.0                           !
 !       D5         49.3258   -DE/DX =    0.0                           !
 !       D6       -123.6001   -DE/DX =    0.0                           !
 !       D7        118.2073   -DE/DX =    0.0                           !
 !       D8        -29.7754   -DE/DX =    0.0                           !
 !       D9        177.7218   -DE/DX =    0.0                           !
 !       D10      -113.366    -DE/DX =    0.0                           !
 !       D11       180.0037   -DE/DX =    0.0                           !
 !       D12       -35.1096   -DE/DX =    0.0                           !
 !       D13      -168.4179   -DE/DX =    0.0                           !
 ------------------------------------------------------------------------
 GradGradGradGradGradGradGradGradGradGradGradGradGradGradGradGradGradGrad

 ---------------------------------------------------------------------------------------------------
                            Z-MATRIX (ANGSTROMS AND DEGREES)
   CD    Cent   Atom    N1       Length/X        N2       Alpha/Y        N3        Beta/Z          J
 ---------------------------------------------------------------------------------------------------
      1      1  C 
      2      2  C        1   1.386595(     1)
      3      3  C        1   1.507281(     2)      2  123.821(    13)
      4      4  H        1   1.085952(     3)      2  118.919(    14)      3 -178.574(    24)      0
      5      5  C        3   1.455671(     4)      1  103.362(    15)      2   49.326(    25)      0
      6      6  H        3   1.092351(     5)      1  112.310(    16)      5 -123.600(    26)      0
      7      7  H        3   1.095353(     6)      1  107.582(    17)      5  118.207(    27)      0
      8      8  C        2   1.373737(     7)      1  128.207(    18)      3  -29.775(    28)      0
      9      9  H        2   1.093004(     8)      1  114.338(    19)      8  177.722(    29)      0
     10     10  H        5   1.079288(     9)      3  122.874(    20)      1 -113.366(    30)      0
     11     11  H        5   1.080442(    10)      3  118.999(    21)     10  180.004(    31)      0
     12     12  H        8   1.076767(    11)      2  121.085(    22)      1  -35.110(    32)      0
     13     13  H        8   1.085924(    12)      2  120.853(    23)     12 -168.418(    33)      0
 ---------------------------------------------------------------------------------------------------
                         Z-Matrix orientation:                         
 ---------------------------------------------------------------------
 Center     Atomic      Atomic             Coordinates (Angstroms)
 Number     Number       Type             X           Y           Z
 ---------------------------------------------------------------------
      1          6           0        0.000000    0.000000    0.000000
      2          6           0        0.000000    0.000000    1.386595
      3          6           0        1.252219    0.000000   -0.838954
      4          1           0       -0.950240    0.023660   -0.525143
      5          6           0        2.045470   -1.074137   -0.259331
      6          1           0        1.749183    0.972752   -0.842218
      7          1           0        0.959619   -0.225414   -1.870154
      8          6           0        0.936948   -0.536060    2.236255
      9          1           0       -0.844054    0.528521    1.837034
     10          1           0        2.976429   -0.901065    0.258574
     11          1           0        1.693219   -2.091727   -0.347555
     12          1           0        1.457724   -1.445049    1.987337
     13          1           0        1.042715   -0.167826    3.252350
 ---------------------------------------------------------------------
                    Distance matrix (angstroms):
                    1          2          3          4          5
     1  C    0.000000
     2  C    1.386595   0.000000
     3  C    1.507281   2.553649   0.000000
     4  H    1.085952   2.135008   2.224829   0.000000
     5  C    2.324859   2.836687   1.455671   3.201576   0.000000
     6  H    2.171456   2.995580   1.092351   2.878923   2.148790
     7  H    2.114038   3.402660   1.095353   2.349181   2.119941
     8  C    2.483157   1.373737   3.137462   3.391178   2.783217
     9  H    2.089607   1.093004   3.440147   2.417860   3.913133
    10  H    3.120562   3.308093   2.233693   4.109508   1.079288
    11  H    2.713505   3.201498   2.193462   3.390320   1.080442
    12  H    2.857033   2.138695   3.180931   3.777294   2.351711
    13  H    3.419532   2.143936   4.100101   4.275277   3.762821
                    6          7          8          9         10
     6  H    0.000000
     7  H    1.765125   0.000000
     8  C    3.523243   4.118204   0.000000
     9  H    3.755079   4.191050   2.112979   0.000000
    10  H    2.495810   3.009237   2.864250   4.373939   0.000000
    11  H    3.104651   2.517856   3.109360   4.251575   1.852484
    12  H    3.733242   4.076255   1.076767   3.035746   2.364531
    13  H    4.308771   5.123501   1.085924   2.459251   3.638623
                   11         12         13
    11  H    0.000000
    12  H    2.434210   0.000000
    13  H    4.133264   1.844935   0.000000
 Symmetry turned off by external request.
 Stoichiometry    C5H8
 Framework group  C1[X(C5H8)]
 Deg. of freedom    33
 Full point group                 C1      NOp   1
 Rotational constants (GHZ):           8.5160279           4.4700930           3.1825960
 1\1\GINC-BHC0011\FTS\RB3LYP\def2TZVP\C5H8\DHANAWAY\10-Jun-2022\1\\# Op
 t=(TS, CalcFC, noeigentest, Z-matrix, MaxStep=10) geom=allcheckpoint g
 uess=read Field=read NoSymm B3LYP/Def2TZVP freq=noraman pop=none\\ts_z
 mat_initalOpt\\0,1\C\C,1,R2\C,1,R3,2,A3\H,1,R4,2,A4,3,D4,0\C,3,R5,1,A5
 ,2,D5,0\H,3,R6,1,A6,5,D6,0\H,3,R7,1,A7,5,D7,0\C,2,R8,1,A8,3,D8,0\H,2,R
 9,1,A9,8,D9,0\H,5,R10,3,A10,1,D10,0\H,5,R11,3,A11,10,D11,0\H,8,R12,2,A
 12,1,D12,0\H,8,R13,2,A13,12,D13,0\\R2=1.38659534\R3=1.50728147\R4=1.08
 595161\R5=1.4556714\R6=1.09235099\R7=1.0953532\R8=1.37373749\R9=1.0930
 0392\R10=1.07928829\R11=1.08044217\R12=1.07676699\R13=1.08592418\A3=12
 3.82105912\A4=118.91941608\A5=103.36153955\A6=112.31048621\A7=107.5823
 3934\A8=128.20684401\A9=114.33752338\A10=122.8737661\A11=118.99907183\
 A12=121.08478161\A13=120.85297722\D4=-178.5737153\D5=49.32575515\D6=-1
 23.60007326\D7=118.20729158\D8=-29.77535595\D9=177.72180652\D10=-113.3
 6597258\D11=180.00373502\D12=-35.10955024\D13=-168.41788938\\Version=E
 S64L-G16RevA.03\HF=-195.2800796\RMSD=3.337e-09\RMSF=1.400e-04\Dipole=-
 0.2467762,0.0842784,-0.8147386\PG=C01 [X(C5H8)]\\@


 Sacred cows make the best hamburger.
                               -- Mark Twain
 Job cpu time:       0 days  0 hours 32 minutes 54.9 seconds.
 Elapsed time:       0 days  0 hours  2 minutes 45.4 seconds.
 File lengths (MBytes):  RWF=     46 Int=      0 D2E=      0 Chk=     32 Scr=      1
 Normal termination of Gaussian 16 at Fri Jun 10 11:42:52 2022.
 Link1:  Proceeding to internal job step number  2.
 --------------------------------------------------------------------
 #N Geom=AllCheck Guess=TCheck SCRF=Check GenChk RB3LYP/def2TZVP Freq
 --------------------------------------------------------------------
 1/5=1,8=10,10=4,11=1,29=7,30=1,38=1,40=1/1,3;
 2/12=2,15=1,40=1/2;
 3/5=44,7=101,11=2,14=-4,25=1,30=1,70=2,71=2,74=-5,116=1,140=1/1,2,3;
 4/5=101/1;
 5/5=2,38=6,98=1/2;
 8/6=4,10=90,11=11/1;
 11/6=1,8=1,9=11,15=111,16=1,31=1/1,2,10;
 10/6=1,31=1/2;
 7/8=1,10=1,25=1,30=1/1,2,3,16;
 1/5=1,8=10,10=4,11=1,30=1/3;
 99//99;
 Structure from the checkpoint file:  "checkpoint.chk"
 -----------------
 ts_zmat_initalOpt
 -----------------
 Charge =  0 Multiplicity = 1
 Z-Matrix found in chk file.
 C
 C,1,R2
 C,1,R3,2,A3
 H,1,R4,2,A4,3,D4,0
 C,3,R5,1,A5,2,D5,0
 H,3,R6,1,A6,5,D6,0
 H,3,R7,1,A7,5,D7,0
 C,2,R8,1,A8,3,D8,0
 H,2,R9,1,A9,8,D9,0
 H,5,R10,3,A10,1,D10,0
 H,5,R11,3,A11,10,D11,0
 H,8,R12,2,A12,1,D12,0
 H,8,R13,2,A13,12,D13,0
      Variables:
 R2=1.38659534
 R3=1.50728147
 R4=1.08595161
 R5=1.4556714
 R6=1.09235099
 R7=1.0953532
 R8=1.37373749
 R9=1.09300392
 R10=1.07928829
 R11=1.08044217
 R12=1.07676699
 R13=1.08592418
 A3=123.82105912
 A4=118.91941608
 A5=103.36153955
 A6=112.31048621
 A7=107.58233934
 A8=128.20684401
 A9=114.33752338
 A10=122.8737661
 A11=118.99907183
 A12=121.08478161
 A13=120.85297722
 D4=-178.5737153
 D5=49.32575515
 D6=-123.60007326
 D7=118.20729158
 D8=-29.77535595
 D9=177.72180652
 D10=-113.36597258
 D11=180.00373502
 D12=-35.10955024
 D13=-168.41788938
 Recover connectivity data from disk.

 GradGradGradGradGradGradGradGradGradGradGradGradGradGradGradGradGradGrad
 Berny optimization.
 Initialization pass.
                       ----------------------------
                       !    Initial Parameters    !
                       ! (Angstroms and Degrees)  !
 ----------------------                            ----------------------
 !      Name          Value   Derivative information (Atomic Units)     !
 ------------------------------------------------------------------------
 !       R2          1.3866   calculate D2E/DX2 analytically            !
 !       R3          1.5073   calculate D2E/DX2 analytically            !
 !       R4          1.086    calculate D2E/DX2 analytically            !
 !       R5          1.4557   calculate D2E/DX2 analytically            !
 !       R6          1.0924   calculate D2E/DX2 analytically            !
 !       R7          1.0954   calculate D2E/DX2 analytically            !
 !       R8          1.3737   calculate D2E/DX2 analytically            !
 !       R9          1.093    calculate D2E/DX2 analytically            !
 !       R10         1.0793   calculate D2E/DX2 analytically            !
 !       R11         1.0804   calculate D2E/DX2 analytically            !
 !       R12         1.0768   calculate D2E/DX2 analytically            !
 !       R13         1.0859   calculate D2E/DX2 analytically            !
 !       A3        123.8211   calculate D2E/DX2 analytically            !
 !       A4        118.9194   calculate D2E/DX2 analytically            !
 !       A5        103.3615   calculate D2E/DX2 analytically            !
 !       A6        112.3105   calculate D2E/DX2 analytically            !
 !       A7        107.5823   calculate D2E/DX2 analytically            !
 !       A8        128.2068   calculate D2E/DX2 analytically            !
 !       A9        114.3375   calculate D2E/DX2 analytically            !
 !       A10       122.8738   calculate D2E/DX2 analytically            !
 !       A11       118.9991   calculate D2E/DX2 analytically            !
 !       A12       121.0848   calculate D2E/DX2 analytically            !
 !       A13       120.853    calculate D2E/DX2 analytically            !
 !       D4       -178.5737   calculate D2E/DX2 analytically            !
 !       D5         49.3258   calculate D2E/DX2 analytically            !
 !       D6       -123.6001   calculate D2E/DX2 analytically            !
 !       D7        118.2073   calculate D2E/DX2 analytically            !
 !       D8        -29.7754   calculate D2E/DX2 analytically            !
 !       D9        177.7218   calculate D2E/DX2 analytically            !
 !       D10      -113.366    calculate D2E/DX2 analytically            !
 !       D11       180.0037   calculate D2E/DX2 analytically            !
 !       D12       -35.1096   calculate D2E/DX2 analytically            !
 !       D13      -168.4179   calculate D2E/DX2 analytically            !
 ------------------------------------------------------------------------
 Trust Radius=1.00D-01 FncErr=1.00D-07 GrdErr=1.00D-07 EigMax=2.50D+02 EigMin=1.00D-04
 Number of steps in this run=      2 maximum allowed number of steps=      2.
 Search for a saddle point of order  1.
 GradGradGradGradGradGradGradGradGradGradGradGradGradGradGradGradGradGrad

                          Input orientation:                          
 ---------------------------------------------------------------------
 Center     Atomic      Atomic             Coordinates (Angstroms)
 Number     Number       Type             X           Y           Z
 ---------------------------------------------------------------------
      1          6           0        0.000000    0.000000    0.000000
      2          6           0        0.000000    0.000000    1.386595
      3          6           0        1.252219    0.000000   -0.838954
      4          1           0       -0.950240    0.023660   -0.525143
      5          6           0        2.045470   -1.074137   -0.259331
      6          1           0        1.749183    0.972752   -0.842218
      7          1           0        0.959619   -0.225414   -1.870154
      8          6           0        0.936948   -0.536060    2.236255
      9          1           0       -0.844054    0.528521    1.837034
     10          1           0        2.976429   -0.901065    0.258574
     11          1           0        1.693219   -2.091727   -0.347555
     12          1           0        1.457724   -1.445049    1.987337
     13          1           0        1.042715   -0.167826    3.252350
 ---------------------------------------------------------------------
                    Distance matrix (angstroms):
                    1          2          3          4          5
     1  C    0.000000
     2  C    1.386595   0.000000
     3  C    1.507281   2.553649   0.000000
     4  H    1.085952   2.135008   2.224829   0.000000
     5  C    2.324859   2.836687   1.455671   3.201576   0.000000
     6  H    2.171456   2.995580   1.092351   2.878923   2.148790
     7  H    2.114038   3.402660   1.095353   2.349181   2.119941
     8  C    2.483157   1.373737   3.137462   3.391178   2.783217
     9  H    2.089607   1.093004   3.440147   2.417860   3.913133
    10  H    3.120562   3.308093   2.233693   4.109508   1.079288
    11  H    2.713505   3.201498   2.193462   3.390320   1.080442
    12  H    2.857033   2.138695   3.180931   3.777294   2.351711
    13  H    3.419532   2.143936   4.100101   4.275277   3.762821
                    6          7          8          9         10
     6  H    0.000000
     7  H    1.765125   0.000000
     8  C    3.523243   4.118204   0.000000
     9  H    3.755079   4.191050   2.112979   0.000000
    10  H    2.495810   3.009237   2.864250   4.373939   0.000000
    11  H    3.104651   2.517856   3.109360   4.251575   1.852484
    12  H    3.733242   4.076255   1.076767   3.035746   2.364531
    13  H    4.308771   5.123501   1.085924   2.459251   3.638623
                   11         12         13
    11  H    0.000000
    12  H    2.434210   0.000000
    13  H    4.133264   1.844935   0.000000
 Symmetry turned off by external request.
 Stoichiometry    C5H8
 Framework group  C1[X(C5H8)]
 Deg. of freedom    33
 Full point group                 C1      NOp   1
 Rotational constants (GHZ):           8.5160279           4.4700930           3.1825960
 Standard basis: def2TZVP (5D, 7F)
 The following finite field(s) will be applied:
 An electric field of              0.0037 -0.0002  0.0065
   203 basis functions,   319 primitive gaussians,   228 cartesian basis functions
    19 alpha electrons       19 beta electrons
       nuclear repulsion energy       161.9224837119 Hartrees.
 NAtoms=   13 NActive=   13 NUniq=   13 SFac= 1.00D+00 NAtFMM=   60 NAOKFM=F Big=F
 Integral buffers will be    131072 words long.
 Raffenetti 2 integral format.
 Two-electron integral symmetry is turned off.
 One-electron integrals computed using PRISM.
   1 Symmetry operations used in ECPInt.
 ECPInt:  NShTT=    3828 NPrTT=   11160 LenC2=    3812 LenP2D=    9465.
 LDataN:  DoStor=T MaxTD1= 6 Len=  172
 NBasis=   203 RedAO= T EigKep=  1.51D-04  NBF=   203
 NBsUse=   203 1.00D-06 EigRej= -1.00D+00 NBFU=   203
 The nuclear repulsion energy is now       162.3958936418 hartrees.
 Initial guess from the checkpoint file:  "checkpoint.chk"
 B after Tr=     0.000000    0.000000    0.000000
         Rot=    1.000000    0.000000    0.000000    0.000000 Ang=   0.00 deg.
 Requested convergence on RMS density matrix=1.00D-08 within 128 cycles.
 Requested convergence on MAX density matrix=1.00D-06.
 Requested convergence on             energy=1.00D-06.
 No special actions if energy rises.
 SCF Done:  E(RB3LYP) =  -195.280079605     A.U. after    1 cycles
            NFock=  1  Conv=0.11D-08     -V/T= 2.0056
 DoSCS=F DFT=T ScalE2(SS,OS)=  1.000000  1.000000
 Range of M.O.s used for correlation:     1   203
 NBasis=   203 NAE=    19 NBE=    19 NFC=     0 NFV=     0
 NROrb=    203 NOA=    19 NOB=    19 NVA=   184 NVB=   184

 **** Warning!!: The largest alpha MO coefficient is  0.20587499D+02

   1 Symmetry operations used in ECPInt.
 ECPInt:  NShTT=    3828 NPrTT=   11160 LenC2=    3812 LenP2D=    9465.
 LDataN:  DoStor=T MaxTD1= 7 Len=  274
 Symmetrizing basis deriv contribution to polar:
 IMax=3 JMax=2 DiffMx= 0.00D+00
 G2DrvN: will do    14 centers at a time, making    1 passes.
 Calling FoFCou, ICntrl=  3107 FMM=F I1Cent=   0 AccDes= 0.00D+00.
 End of G2Drv F.D. properties file   721 does not exist.
 End of G2Drv F.D. properties file   722 does not exist.
 End of G2Drv F.D. properties file   788 does not exist.
          IDoAtm=1111111111111
          Differentiating once with respect to electric field.
                with respect to dipole field.
          Differentiating once with respect to nuclear coordinates.
 Keep R1 ints in memory in canonical form, NReq=227048987.
          There are    42 degrees of freedom in the 1st order CPHF.  IDoFFX=6 NUNeed=     3.
     39 vectors produced by pass  0 Test12= 8.32D-15 2.38D-09 XBig12= 2.33D+02 1.34D+01.
 AX will form    39 AO Fock derivatives at one time.
     39 vectors produced by pass  1 Test12= 8.32D-15 2.38D-09 XBig12= 6.16D+01 1.83D+00.
     39 vectors produced by pass  2 Test12= 8.32D-15 2.38D-09 XBig12= 7.74D-01 1.20D-01.
     39 vectors produced by pass  3 Test12= 8.32D-15 2.38D-09 XBig12= 2.21D-03 7.43D-03.
     39 vectors produced by pass  4 Test12= 8.32D-15 2.38D-09 XBig12= 3.12D-06 2.12D-04.
     27 vectors produced by pass  5 Test12= 8.32D-15 2.38D-09 XBig12= 3.46D-09 6.37D-06.
      5 vectors produced by pass  6 Test12= 8.32D-15 2.38D-09 XBig12= 4.64D-12 2.44D-07.
      2 vectors produced by pass  7 Test12= 8.32D-15 2.38D-09 XBig12= 5.26D-15 9.28D-09.
 InvSVY:  IOpt=1 It=  1 EMax= 1.07D-14
 Solved reduced A of dimension   229 with    42 vectors.
 Isotropic polarizability for W=    0.000000       74.78 Bohr**3.
 End of Minotr F.D. properties file   721 does not exist.
 End of Minotr F.D. properties file   722 does not exist.
 End of Minotr F.D. properties file   788 does not exist.
   1 Symmetry operations used in ECPInt.
 ECPInt:  NShTT=    3828 NPrTT=   11160 LenC2=    3812 LenP2D=    9465.
 LDataN:  DoStor=T MaxTD1= 8 Len=  415
 Calling FoFJK, ICntrl=    100127 FMM=F ISym2X=0 I1Cent= 0 IOpClX= 0 NMat=1 NMatS=1 NMatT=0.
 Full mass-weighted force constant matrix:
 Low frequencies --- -420.2529   -7.4856    0.0002    0.0005    0.0006   11.1606
 Low frequencies ---   16.9895  218.6763  261.3947
 ******    1 imaginary frequencies (negative Signs) ****** 
 Diagonal vibrational polarizability:
        3.7678041       4.8425126       3.8571893
 Harmonic frequencies (cm**-1), IR intensities (KM/Mole), Raman scattering
 activities (A**4/AMU), depolarization ratios for plane and unpolarized
 incident light, reduced masses (AMU), force constants (mDyne/A),
 and normal coordinates:
                      1                      2                      3
                      A                      A                      A
 Frequencies --   -420.2527               218.6756               261.3924
 Red. masses --      1.9512                 2.2411                 2.2646
 Frc consts  --      0.2030                 0.0631                 0.0912
 IR Inten    --      0.2633                 0.3623                 0.9983
  Atom  AN      X      Y      Z        X      Y      Z        X      Y      Z
     1   6    -0.09   0.12   0.00    -0.05  -0.09  -0.03     0.01  -0.07  -0.03
     2   6    -0.05  -0.02  -0.05    -0.04  -0.05  -0.05     0.10   0.10  -0.01
     3   6    -0.04  -0.09   0.07     0.05   0.09   0.13    -0.02   0.02  -0.09
     4   1    -0.07   0.51  -0.01    -0.01  -0.13  -0.10    -0.02  -0.27   0.01
     5   6     0.09   0.03   0.12    -0.12  -0.06   0.07    -0.10   0.11   0.19
     6   1    -0.09  -0.06  -0.07     0.09   0.07   0.52    -0.09   0.05  -0.19
     7   1    -0.01  -0.21   0.08     0.26   0.38   0.01     0.00  -0.17  -0.04
     8   6     0.08  -0.05  -0.12     0.13   0.09  -0.13     0.03  -0.12  -0.08
     9   1    -0.05  -0.09   0.04    -0.05  -0.10  -0.01     0.23   0.28   0.02
    10   1     0.31   0.07  -0.31    -0.12  -0.24   0.14    -0.28   0.22   0.47
    11   1     0.07   0.02   0.32    -0.20  -0.02  -0.14     0.07   0.07   0.03
    12   1    -0.25  -0.27   0.01    -0.01  -0.01  -0.03    -0.29  -0.30  -0.08
    13   1     0.30   0.09  -0.19     0.32   0.24  -0.20     0.16  -0.19  -0.06
                      4                      5                      6
                      A                      A                      A
 Frequencies --    370.4517               543.2220               586.7226
 Red. masses --      2.2321                 1.2731                 1.3160
 Frc consts  --      0.1805                 0.2213                 0.2669
 IR Inten    --      6.9993                 8.3142                 3.2495
  Atom  AN      X      Y      Z        X      Y      Z        X      Y      Z
     1   6    -0.07  -0.13   0.03     0.00  -0.02  -0.02    -0.01  -0.06  -0.06
     2   6    -0.00   0.18   0.03     0.04  -0.07  -0.05     0.10   0.02  -0.05
     3   6    -0.03  -0.02   0.10    -0.01   0.02  -0.03    -0.04   0.02   0.01
     4   1    -0.06  -0.08   0.01     0.00   0.29   0.00    -0.04  -0.05   0.01
     5   6     0.15  -0.03  -0.11    -0.02   0.02  -0.02    -0.02   0.03   0.01
     6   1    -0.13   0.03   0.33    -0.06   0.05  -0.01    -0.03   0.01   0.28
     7   1     0.08   0.18   0.03     0.00   0.01  -0.03     0.11   0.26  -0.09
     8   6    -0.07  -0.02  -0.04     0.00   0.01   0.11    -0.02  -0.03   0.05
     9   1     0.18   0.48   0.02     0.09   0.07  -0.11     0.14   0.09  -0.06
    10   1     0.16   0.02  -0.14    -0.04  -0.01   0.00     0.21   0.01  -0.40
    11   1     0.32  -0.08  -0.30     0.11  -0.00  -0.32    -0.34   0.09   0.61
    12   1    -0.36  -0.16  -0.13    -0.36  -0.33   0.58     0.05  -0.02   0.15
    13   1     0.16  -0.04  -0.06     0.03   0.40  -0.03    -0.20  -0.02   0.06
                      7                      8                      9
                      A                      A                      A
 Frequencies --    648.0275               696.6732               744.3437
 Red. masses --      1.4824                 1.3536                 1.2678
 Frc consts  --      0.3668                 0.3871                 0.4139
 IR Inten    --     17.5223                50.0183                47.4238
  Atom  AN      X      Y      Z        X      Y      Z        X      Y      Z
     1   6    -0.10   0.07  -0.06    -0.02  -0.02  -0.05     0.04  -0.01   0.02
     2   6     0.08  -0.03  -0.05     0.07  -0.01  -0.03    -0.06  -0.03   0.04
     3   6    -0.06  -0.04   0.05    -0.01   0.01   0.06     0.02   0.01  -0.05
     4   1    -0.13   0.27   0.00    -0.02   0.19  -0.04     0.06   0.08  -0.04
     5   6     0.06  -0.04  -0.03    -0.05   0.02   0.09     0.03   0.00  -0.05
     6   1    -0.03  -0.05   0.23    -0.10   0.07  -0.12     0.07  -0.02   0.01
     7   1     0.08   0.12  -0.03     0.06  -0.20   0.08    -0.04   0.10  -0.05
     8   6     0.02  -0.02   0.00    -0.07  -0.05   0.03    -0.07  -0.06   0.03
     9   1     0.19   0.07   0.04     0.18   0.16  -0.02     0.08   0.25  -0.02
    10   1    -0.34   0.21   0.62     0.18  -0.14  -0.29    -0.12   0.10   0.18
    11   1     0.17  -0.09   0.10     0.12   0.01  -0.43    -0.15   0.03   0.37
    12   1     0.31   0.14   0.04     0.50   0.33  -0.20     0.15   0.09  -0.10
    13   1    -0.21  -0.01   0.02     0.12   0.20  -0.08     0.60   0.45  -0.23
                     10                     11                     12
                      A                      A                      A
 Frequencies --    772.4882               834.4093               895.0323
 Red. masses --      1.3780                 1.5517                 1.4897
 Frc consts  --      0.4845                 0.6365                 0.7031
 IR Inten    --      7.0555                10.8818                 5.0703
  Atom  AN      X      Y      Z        X      Y      Z        X      Y      Z
     1   6    -0.03   0.09  -0.00     0.15  -0.11   0.04    -0.02   0.01  -0.01
     2   6    -0.00   0.01   0.02    -0.02   0.01  -0.01    -0.09  -0.13   0.08
     3   6     0.02  -0.06  -0.10    -0.07  -0.02  -0.02     0.05  -0.01  -0.04
     4   1    -0.09  -0.28   0.07     0.18   0.74   0.03     0.02   0.04  -0.08
     5   6    -0.05  -0.01   0.06    -0.07   0.01   0.03    -0.02   0.01   0.02
     6   1     0.18  -0.14   0.35    -0.02  -0.04   0.20     0.11  -0.03  -0.01
     7   1     0.16   0.34  -0.22    -0.08   0.21  -0.06     0.04   0.02  -0.04
     8   6    -0.01  -0.03   0.04    -0.00   0.04  -0.03     0.05   0.05  -0.05
     9   1    -0.08  -0.15   0.06    -0.13  -0.05  -0.15     0.46   0.74   0.10
    10   1     0.07   0.31  -0.27    -0.08   0.29  -0.05     0.07   0.08  -0.16
    11   1     0.47  -0.17  -0.14     0.23  -0.09   0.02     0.07  -0.01   0.01
    12   1     0.03   0.01  -0.01     0.03   0.10  -0.19     0.02   0.01   0.05
    13   1     0.16   0.08  -0.01    -0.07  -0.19   0.05    -0.30  -0.17   0.07
                     13                     14                     15
                      A                      A                      A
 Frequencies --    931.6592              1030.8655              1062.4657
 Red. masses --      1.8150                 1.5588                 1.6744
 Frc consts  --      0.9282                 0.9760                 1.1136
 IR Inten    --      4.0640                 0.2686                15.9123
  Atom  AN      X      Y      Z        X      Y      Z        X      Y      Z
     1   6     0.13   0.07   0.05    -0.00   0.04  -0.09    -0.11  -0.09  -0.03
     2   6     0.03  -0.04  -0.07     0.02  -0.07  -0.05     0.00   0.07   0.03
     3   6    -0.07  -0.00   0.14    -0.02   0.00   0.09     0.13   0.04   0.06
     4   1     0.14  -0.48   0.02     0.02  -0.12  -0.14     0.06   0.18  -0.32
     5   6    -0.04  -0.02  -0.03    -0.03   0.00  -0.03    -0.08   0.01  -0.07
     6   1     0.08  -0.08  -0.03     0.06  -0.04  -0.04     0.46  -0.14  -0.24
     7   1    -0.45   0.02   0.25    -0.06  -0.10   0.11    -0.12  -0.19   0.17
     8   6    -0.05  -0.01  -0.10     0.02   0.06   0.13     0.02  -0.03   0.01
     9   1     0.10   0.10  -0.11    -0.02   0.16  -0.37    -0.03  -0.17   0.24
    10   1    -0.05   0.29  -0.11    -0.06   0.17  -0.04    -0.11   0.43  -0.16
    11   1     0.23  -0.12   0.07     0.07  -0.04   0.06     0.18  -0.10   0.20
    12   1     0.03  -0.04   0.17    -0.31  -0.00  -0.39     0.08  -0.04   0.15
    13   1    -0.19   0.30  -0.20     0.47  -0.39   0.24    -0.05   0.03  -0.00
                     16                     17                     18
                      A                      A                      A
 Frequencies --   1132.3259              1155.2201              1221.2176
 Red. masses --      2.1662                 1.9969                 1.2297
 Frc consts  --      1.6364                 1.5701                 1.0805
 IR Inten    --     20.1549                 0.2952                 6.9749
  Atom  AN      X      Y      Z        X      Y      Z        X      Y      Z
     1   6    -0.07  -0.04   0.03    -0.07  -0.02   0.14     0.05   0.00  -0.00
     2   6     0.05  -0.04  -0.03     0.10  -0.07  -0.05    -0.01  -0.01   0.02
     3   6     0.01   0.20  -0.08     0.13  -0.08   0.00    -0.06   0.08   0.03
     4   1    -0.23   0.09   0.31    -0.33   0.09   0.62    -0.11  -0.03   0.28
     5   6     0.07  -0.17   0.09    -0.04   0.10  -0.05    -0.03  -0.06  -0.04
     6   1     0.11   0.15  -0.34     0.29  -0.17   0.10    -0.02   0.06  -0.20
     7   1    -0.47   0.25   0.04     0.06  -0.12   0.03     0.77  -0.34  -0.12
     8   6    -0.04   0.04  -0.01    -0.08   0.05  -0.05    -0.01   0.01  -0.02
     9   1     0.06  -0.01  -0.04     0.02   0.02  -0.29    -0.01  -0.02   0.04
    10   1     0.14  -0.09  -0.03    -0.08   0.08   0.01    -0.04   0.17  -0.07
    11   1     0.30  -0.27   0.23    -0.17   0.15  -0.04     0.15  -0.14   0.16
    12   1    -0.14   0.03  -0.18    -0.16   0.07  -0.27    -0.06  -0.02   0.01
    13   1     0.00  -0.02   0.00    -0.06   0.07  -0.08    -0.01   0.05  -0.04
                     19                     20                     21
                      A                      A                      A
 Frequencies --   1266.6411              1305.8972              1400.1345
 Red. masses --      1.2548                 1.3023                 1.3430
 Frc consts  --      1.1861                 1.3086                 1.5512
 IR Inten    --     19.8576                 6.0963                 2.1105
  Atom  AN      X      Y      Z        X      Y      Z        X      Y      Z
     1   6     0.03  -0.00  -0.02     0.01  -0.02  -0.01     0.07  -0.02  -0.12
     2   6     0.06  -0.06   0.00    -0.01   0.00   0.01    -0.08   0.03  -0.03
     3   6    -0.03  -0.02   0.00    -0.14   0.03   0.00     0.02  -0.03   0.04
     4   1     0.12   0.04  -0.16     0.01   0.01  -0.01    -0.35   0.02   0.61
     5   6     0.00   0.02  -0.00     0.05   0.04   0.03     0.01   0.00   0.00
     6   1     0.03  -0.05   0.03     0.79  -0.44  -0.10     0.04  -0.03  -0.07
     7   1     0.02   0.03  -0.02     0.08   0.05  -0.07    -0.18   0.13   0.06
     8   6    -0.08   0.08  -0.00     0.01  -0.01   0.00    -0.01   0.01   0.01
     9   1     0.33  -0.27   0.74    -0.03   0.03  -0.07     0.10  -0.02   0.35
    10   1     0.00  -0.03   0.01     0.09  -0.27   0.08    -0.02   0.15  -0.01
    11   1    -0.04   0.04  -0.02    -0.04   0.09  -0.13    -0.14   0.07  -0.12
    12   1    -0.33   0.02  -0.30     0.02  -0.01   0.03     0.14  -0.01   0.30
    13   1     0.03   0.08  -0.03    -0.01   0.00   0.00     0.24  -0.24   0.08
                     22                     23                     24
                      A                      A                      A
 Frequencies --   1422.7651              1481.1954              1497.2154
 Red. masses --      1.1117                 1.2694                 1.4451
 Frc consts  --      1.3259                 1.6408                 1.9086
 IR Inten    --     13.1231                 7.4184                 1.9110
  Atom  AN      X      Y      Z        X      Y      Z        X      Y      Z
     1   6     0.02   0.00  -0.01     0.01   0.00  -0.07    -0.03   0.00   0.12
     2   6    -0.02   0.00  -0.02    -0.01   0.01   0.06     0.03  -0.01  -0.07
     3   6    -0.01   0.07  -0.06    -0.02   0.03  -0.01    -0.02   0.03  -0.03
     4   1    -0.02  -0.00   0.06    -0.07   0.01   0.07     0.18  -0.04  -0.24
     5   6     0.00   0.00  -0.01     0.05  -0.07   0.04     0.05  -0.07   0.04
     6   1     0.09  -0.00   0.66     0.05  -0.01   0.15     0.05  -0.00   0.00
     7   1    -0.19  -0.64   0.16    -0.10  -0.14   0.05     0.11  -0.06  -0.05
     8   6    -0.01   0.00   0.00     0.05  -0.03   0.03    -0.06   0.04  -0.04
     9   1     0.04   0.00   0.09    -0.09   0.01  -0.08     0.09   0.00   0.01
    10   1     0.02  -0.14   0.01    -0.00   0.51  -0.07     0.01   0.47  -0.08
    11   1     0.12  -0.05   0.09    -0.44   0.13  -0.27    -0.39   0.11  -0.25
    12   1     0.05   0.01   0.08    -0.16  -0.04  -0.34     0.16   0.05   0.36
    13   1     0.07  -0.07   0.03    -0.30   0.33  -0.07     0.31  -0.35   0.07
                     25                     26                     27
                      A                      A                      A
 Frequencies --   1588.5493              3018.0698              3059.5405
 Red. masses --      4.0835                 1.0582                 1.0834
 Frc consts  --      6.0713                 5.6789                 5.9750
 IR Inten    --     24.6160                 8.9238                16.8642
  Atom  AN      X      Y      Z        X      Y      Z        X      Y      Z
     1   6    -0.01   0.02  -0.19     0.00  -0.00   0.00     0.01   0.00   0.00
     2   6     0.19  -0.08   0.36     0.00  -0.00   0.00    -0.06   0.04   0.03
     3   6    -0.00  -0.02   0.01     0.00   0.03  -0.06    -0.01  -0.02  -0.01
     4   1    -0.08   0.11  -0.09    -0.04   0.01  -0.02    -0.09  -0.00  -0.04
     5   6     0.01   0.01   0.01     0.00  -0.00   0.00     0.00   0.00   0.00
     6   1    -0.04   0.01   0.11    -0.26  -0.51  -0.02     0.09   0.18  -0.00
     7   1    -0.13  -0.02   0.04     0.23   0.17   0.76     0.04   0.03   0.15
     8   6    -0.16   0.09  -0.19    -0.00   0.00  -0.00    -0.00  -0.00  -0.01
     9   1    -0.29  -0.17  -0.43    -0.01   0.01   0.01     0.73  -0.46  -0.40
    10   1     0.03  -0.03  -0.02    -0.00  -0.00  -0.01    -0.01  -0.00  -0.01
    11   1     0.00   0.01  -0.01     0.00   0.01   0.00    -0.00  -0.01  -0.00
    12   1    -0.03   0.01   0.47    -0.00   0.00   0.00    -0.00  -0.01  -0.00
    13   1     0.26  -0.22  -0.13    -0.00  -0.00  -0.00     0.01   0.04   0.10
                     28                     29                     30
                      A                      A                      A
 Frequencies --   3063.7281              3122.4843              3147.5597
 Red. masses --      1.1012                 1.0661                 1.0885
 Frc consts  --      6.0903                 6.1239                 6.3534
 IR Inten    --     13.2895                30.3099                 4.1101
  Atom  AN      X      Y      Z        X      Y      Z        X      Y      Z
     1   6     0.00  -0.00   0.00    -0.00  -0.00  -0.00    -0.07   0.00  -0.04
     2   6     0.02  -0.01  -0.01     0.01  -0.01  -0.00    -0.01   0.00   0.01
     3   6    -0.04  -0.07  -0.04     0.00  -0.00  -0.00    -0.00  -0.00  -0.01
     4   1    -0.04   0.00  -0.02     0.05   0.00   0.03     0.86  -0.02   0.49
     5   6     0.00   0.00   0.00     0.00   0.00  -0.00    -0.00   0.00  -0.00
     6   1     0.36   0.70  -0.00    -0.00  -0.00   0.00     0.01   0.02  -0.00
     7   1     0.14   0.10   0.51     0.00   0.00   0.00     0.02   0.02   0.07
     8   6     0.00   0.00   0.00    -0.02  -0.00  -0.07     0.00   0.00   0.01
     9   1    -0.21   0.13   0.11    -0.08   0.05   0.04     0.06  -0.04  -0.04
    10   1    -0.03  -0.01  -0.02    -0.00  -0.00   0.00     0.03   0.01   0.01
    11   1    -0.01  -0.03  -0.00    -0.00  -0.00   0.00    -0.01  -0.04  -0.00
    12   1     0.00  -0.00  -0.00     0.16  -0.28  -0.10     0.00  -0.00   0.00
    13   1    -0.00  -0.01  -0.02     0.09   0.32   0.87    -0.00  -0.02  -0.05
                     31                     32                     33
                      A                      A                      A
 Frequencies --   3163.4489              3253.0556              3265.2824
 Red. masses --      1.0513                 1.1020                 1.1186
 Frc consts  --      6.1989                 6.8710                 7.0272
 IR Inten    --      5.5555                10.9095                 3.9860
  Atom  AN      X      Y      Z        X      Y      Z        X      Y      Z
     1   6    -0.00   0.00  -0.00    -0.00   0.00  -0.00    -0.00   0.00   0.00
     2   6    -0.00   0.00   0.00     0.00  -0.00  -0.00    -0.00   0.00  -0.00
     3   6    -0.00   0.00  -0.00    -0.00  -0.00  -0.00    -0.00  -0.00  -0.00
     4   1     0.04  -0.00   0.02     0.02  -0.00   0.01     0.00   0.00   0.00
     5   6     0.03  -0.05   0.02    -0.01  -0.01  -0.00    -0.07  -0.06  -0.03
     6   1     0.00   0.00  -0.00     0.00   0.01  -0.00     0.02   0.04   0.00
     7   1     0.00  -0.00  -0.01     0.00  -0.00   0.00     0.01   0.01   0.03
     8   6    -0.00   0.00   0.00     0.03  -0.08  -0.04    -0.00   0.01   0.00
     9   1     0.00  -0.00  -0.00    -0.02   0.02   0.01     0.00  -0.00  -0.00
    10   1    -0.59  -0.12  -0.32     0.06   0.01   0.03     0.62   0.11   0.35
    11   1     0.25   0.68   0.07     0.03   0.07   0.00     0.22   0.64   0.05
    12   1     0.00  -0.01  -0.00    -0.45   0.80   0.22     0.05  -0.08  -0.02
    13   1    -0.00  -0.00  -0.01     0.04   0.10   0.29    -0.00  -0.01  -0.03

 -------------------
 - Thermochemistry -
 -------------------
 Temperature   298.150 Kelvin.  Pressure   1.00000 Atm.
 Atom     1 has atomic number  6 and mass  12.00000
 Atom     2 has atomic number  6 and mass  12.00000
 Atom     3 has atomic number  6 and mass  12.00000
 Atom     4 has atomic number  1 and mass   1.00783
 Atom     5 has atomic number  6 and mass  12.00000
 Atom     6 has atomic number  1 and mass   1.00783
 Atom     7 has atomic number  1 and mass   1.00783
 Atom     8 has atomic number  6 and mass  12.00000
 Atom     9 has atomic number  1 and mass   1.00783
 Atom    10 has atomic number  1 and mass   1.00783
 Atom    11 has atomic number  1 and mass   1.00783
 Atom    12 has atomic number  1 and mass   1.00783
 Atom    13 has atomic number  1 and mass   1.00783
 Molecular mass:    68.06260 amu.
 Principal axes and moments of inertia in atomic units:
                           1         2         3
     Eigenvalues --   211.92289 403.73683 567.06575
           X           -0.36677   0.79615   0.48127
           Y            0.06281  -0.49496   0.86665
           Z            0.92819   0.34809   0.13153
 This molecule is an asymmetric top.
 Rotational symmetry number  1.
 Rotational temperatures (Kelvin)      0.40870     0.21453     0.15274
 Rotational constants (GHZ):           8.51603     4.47009     3.18260
    1 imaginary frequencies ignored.
 Zero-point vibrational energy     288065.3 (Joules/Mol)
                                   68.84926 (Kcal/Mol)
 Warning -- explicit consideration of   5 degrees of freedom as
           vibrations may cause significant error
 Vibrational temperatures:    314.63   376.09   533.00   781.58   844.16
          (Kelvin)            932.37  1002.36  1070.94  1111.44  1200.53
                             1287.75  1340.45  1483.19  1528.65  1629.16
                             1662.10  1757.06  1822.41  1878.89  2014.48
                             2047.04  2131.11  2154.16  2285.57  4342.33
                             4402.00  4408.02  4492.56  4528.64  4551.50
                             4680.42  4698.01
 
 Zero-point correction=                           0.109718 (Hartree/Particle)
 Thermal correction to Energy=                    0.115029
 Thermal correction to Enthalpy=                  0.115973
 Thermal correction to Gibbs Free Energy=         0.081891
 Sum of electronic and zero-point Energies=           -195.170361
 Sum of electronic and thermal Energies=              -195.165051
 Sum of electronic and thermal Enthalpies=            -195.164106
 Sum of electronic and thermal Free Energies=         -195.198189
 
                     E (Thermal)             CV                S
                      KCal/Mol        Cal/Mol-Kelvin    Cal/Mol-Kelvin
 Total                   72.182             20.102             71.732
 Electronic               0.000              0.000              0.000
 Translational            0.889              2.981             38.571
 Rotational               0.889              2.981             25.387
 Vibrational             70.404             14.140              7.774
 Vibration     1          0.646              1.813              1.970
 Vibration     2          0.669              1.743              1.652
[...]
   A12        2.11333  -0.00000   0.00000  -0.00000  -0.00000   2.11332
   A13        2.10928  -0.00000   0.00000  -0.00001  -0.00001   2.10927
    D4       -3.11670  -0.00000   0.00000   0.00004   0.00004  -3.11666
    D5        0.86090   0.00000   0.00000   0.00001   0.00001   0.86091
    D6       -2.15723  -0.00000   0.00000  -0.00001  -0.00001  -2.15724
    D7        2.06311  -0.00000   0.00000  -0.00000  -0.00000   2.06310
    D8       -0.51968  -0.00000   0.00000  -0.00004  -0.00004  -0.51972
    D9        3.10183  -0.00000   0.00000   0.00001   0.00001   3.10184
   D10       -1.97861  -0.00000   0.00000  -0.00003  -0.00003  -1.97864
   D11        3.14166  -0.00000   0.00000   0.00001   0.00001   3.14167
   D12       -0.61278  -0.00000   0.00000  -0.00003  -0.00003  -0.61281
   D13       -2.93945   0.00000   0.00000   0.00005   0.00005  -2.93940
         Item               Value     Threshold  Converged?
 Maximum Force            0.000007     0.000450     YES
 RMS     Force            0.000003     0.000300     YES
 Maximum Displacement     0.000048     0.001800     YES
 RMS     Displacement     0.000016     0.001200     YES
 Predicted change in Energy=-2.046019D-10
 Optimization completed.
    -- Stationary point found.
                       ----------------------------
                       !   Optimized Parameters   !
                       ! (Angstroms and Degrees)  !
 ----------------------                            ----------------------
 !      Name          Value   Derivative information (Atomic Units)     !
 ------------------------------------------------------------------------
 !       R2          1.3866   -DE/DX =    0.0                           !
 !       R3          1.5073   -DE/DX =    0.0                           !
 !       R4          1.086    -DE/DX =    0.0                           !
 !       R5          1.4557   -DE/DX =    0.0                           !
 !       R6          1.0924   -DE/DX =    0.0                           !
 !       R7          1.0954   -DE/DX =    0.0                           !
 !       R8          1.3737   -DE/DX =    0.0                           !
 !       R9          1.093    -DE/DX =    0.0                           !
 !       R10         1.0793   -DE/DX =    0.0                           !
 !       R11         1.0804   -DE/DX =    0.0                           !
 !       R12         1.0768   -DE/DX =    0.0                           !
 !       R13         1.0859   -DE/DX =    0.0                           !
 !       A3        123.8211   -DE/DX =    0.0                           !
 !       A4        118.9194   -DE/DX =    0.0                           !
 !       A5        103.3615   -DE/DX =    0.0                           !
 !       A6        112.3105   -DE/DX =    0.0                           !
 !       A7        107.5823   -DE/DX =    0.0                           !
 !       A8        128.2068   -DE/DX =    0.0                           !
 !       A9        114.3375   -DE/DX =    0.0                           !
 !       A10       122.8738   -DE/DX =    0.0                           !
 !       A11       118.9991   -DE/DX =    0.0                           !
 !       A12       121.0848   -DE/DX =    0.0                           !
 !       A13       120.853    -DE/DX =    0.0                           !
 !       D4       -178.5737   -DE/DX =    0.0                           !
 !       D5         49.3258   -DE/DX =    0.0                           !
 !       D6       -123.6001   -DE/DX =    0.0                           !
 !       D7        118.2073   -DE/DX =    0.0                           !
 !       D8        -29.7754   -DE/DX =    0.0                           !
 !       D9        177.7218   -DE/DX =    0.0                           !
 !       D10      -113.366    -DE/DX =    0.0                           !
 !       D11       180.0037   -DE/DX =    0.0                           !
 !       D12       -35.1096   -DE/DX =    0.0                           !
 !       D13      -168.4179   -DE/DX =    0.0                           !
 ------------------------------------------------------------------------
 GradGradGradGradGradGradGradGradGradGradGradGradGradGradGradGradGradGrad


 ----------------------------------------------------------------------

 Electric dipole moment (input orientation):
 (Debye = 10**-18 statcoulomb cm , SI units = C m)
                  (au)            (Debye)         (10**-30 SI)
   Tot        0.855454D+00      0.217435D+01      0.725284D+01
   x         -0.246775D+00     -0.627241D+00     -0.209225D+01
   y          0.842784D-01      0.214214D+00      0.714542D+00
   z         -0.814739D+00     -0.207086D+01     -0.690765D+01

 Dipole polarizability, Alpha (input orientation).
 (esu units = cm**3 , SI units = C**2 m**2 J**-1)
 Alpha(0;0):
               (au)            (10**-24 esu)      (10**-40 SI)
   iso        0.747803D+02      0.110813D+02      0.123296D+02
   aniso      0.493028D+02      0.730592D+01      0.812893D+01
   xx         0.754229D+02      0.111765D+02      0.124356D+02
   yx        -0.153547D+02     -0.227533D+01     -0.253164D+01
   yy         0.542926D+02      0.804533D+01      0.895163D+01
   zx        -0.121267D+02     -0.179700D+01     -0.199943D+01
   zy         0.452073D+01      0.669903D+00      0.745368D+00
   zz         0.946254D+02      0.140220D+02      0.156016D+02

 ----------------------------------------------------------------------

 Dipole orientation:
     6          0.00000000         -0.00000000          0.00000000
     6         -0.75588197         -0.25814771         -2.49557567
     6          2.72283475          0.12174569          0.82731002
     1         -1.43223060          0.07941902          1.46756002
     6          3.81244927          2.01174765         -0.84829285
     1          3.65046959         -1.72041399          0.74337305
     1          2.74941005          0.74563065          2.80078919
     6          0.46130200          0.56586595         -4.63534585
     1         -2.51394068         -1.31258482         -2.74774944
     1          5.21915372          1.56428740         -2.25568900
     1          3.19526574          3.95127045         -0.68693249
     1          1.51416867          2.30708248         -4.64047016
     1          0.10887381         -0.31861609         -6.45320101

 Electric dipole moment (dipole orientation):
 (Debye = 10**-18 statcoulomb cm , SI units = C m)
                  (au)            (Debye)         (10**-30 SI)
   Tot        0.855454D+00      0.217435D+01      0.725284D+01
   x          0.000000D+00      0.000000D+00      0.000000D+00
   y          0.000000D+00      0.000000D+00      0.000000D+00
   z          0.855454D+00      0.217435D+01      0.725284D+01

 Dipole polarizability, Alpha (dipole orientation).
 (esu units = cm**3 , SI units = C**2 m**2 J**-1)
 Alpha(0;0):
               (au)            (10**-24 esu)      (10**-40 SI)
   iso        0.747803D+02      0.110813D+02      0.123296D+02
   aniso      0.493028D+02      0.730592D+01      0.812893D+01
   xx         0.832487D+02      0.123362D+02      0.137259D+02
   yx         0.178662D+02      0.264749D+01      0.294573D+01
   yy         0.550953D+02      0.816427D+01      0.908398D+01
   zx         0.137187D+02      0.203290D+01      0.226191D+01
   zy         0.321532D+01      0.476461D+00      0.530135D+00
   zz         0.859969D+02      0.127434D+02      0.141790D+02

 ----------------------------------------------------------------------
 1\1\GINC-BHC0011\Freq\RB3LYP\def2TZVP\C5H8\DHANAWAY\10-Jun-2022\1\\#N 
 Geom=AllCheck Guess=TCheck SCRF=Check GenChk RB3LYP/def2TZVP Freq\\ts_
 zmat_initalOpt\\0,1\C\C,1,R2\C,1,R3,2,A3\H,1,R4,2,A4,3,D4,0\C,3,R5,1,A
 5,2,D5,0\H,3,R6,1,A6,5,D6,0\H,3,R7,1,A7,5,D7,0\C,2,R8,1,A8,3,D8,0\H,2,
 R9,1,A9,8,D9,0\H,5,R10,3,A10,1,D10,0\H,5,R11,3,A11,10,D11,0\H,8,R12,2,
 A12,1,D12,0\H,8,R13,2,A13,12,D13,0\\R2=1.38659534\R3=1.50728147\R4=1.0
 8595161\R5=1.4556714\R6=1.09235099\R7=1.0953532\R8=1.37373749\R9=1.093
 00392\R10=1.07928829\R11=1.08044217\R12=1.07676699\R13=1.08592418\A3=1
 23.82105912\A4=118.91941608\A5=103.36153955\A6=112.31048621\A7=107.582
 33934\A8=128.20684401\A9=114.33752338\A10=122.8737661\A11=118.99907183
 \A12=121.08478161\A13=120.85297722\D4=-178.5737153\D5=49.32575515\D6=-
 123.60007326\D7=118.20729158\D8=-29.77535595\D9=177.72180652\D10=-113.
 36597258\D11=180.00373502\D12=-35.10955024\D13=-168.41788938\\Version=
 ES64L-G16RevA.03\HF=-195.2800796\RMSD=1.081e-09\RMSF=1.400e-04\ZeroPoi
 nt=0.1097183\Thermal=0.115029\Dipole=-0.2467755,0.0842784,-0.8147394\D
 ipoleDeriv=0.1027164,0.0659652,0.1600177,-0.0639107,-0.2170546,0.06593
 11,-0.0170918,-0.0144512,-0.2073227,-0.0566715,-0.098582,0.1942628,-0.
 1250157,-0.1146998,-0.1118524,0.0222382,0.0005422,0.3464064,0.0740055,
 -0.024412,-0.3440638,0.0430964,0.1499708,0.0754493,-0.0330146,0.028516
 ,0.01366,-0.0124184,0.0074705,-0.0896433,0.0460003,0.139609,-0.0223511
 ,-0.0386806,-0.003239,0.0370765,-0.202232,0.1413729,0.4395097,0.205937
 1,-0.0337481,-0.2487908,0.1415492,0.0164832,0.0167334,0.055908,-0.0946
 126,0.0400141,-0.0779751,-0.0796168,0.0581649,-0.0041373,-0.0249252,0.
 0663431,0.0976443,-0.012986,-0.0417912,-0.0594253,0.122022,0.0169818,-
 0.0215725,-0.0196473,-0.0212568,-0.2289918,-0.1643638,-0.2957655,-0.09
 0046,-0.1550866,0.2859256,0.0966784,0.2014629,-0.1811076,-0.0502802,0.
 1104965,0.076632,0.0901973,0.093874,-0.0399669,0.0792174,-0.0555321,0.
 0390869,-0.0323935,0.0130763,-0.0711065,-0.0173418,0.0166567,-0.013918
 ,-0.0902769,0.0000359,0.0735703,0.0182825,-0.0346612,-0.006284,-0.0080
 264,-0.0377936,0.016801,-0.0358895,0.0136651,0.0593455,0.1129684,0.055
 5711,-0.0446535,0.0350327,0.0228257,-0.0054061,-0.0274314,-0.0814174,-
 0.055867,0.1214623,0.0356651,-0.0171285,0.0214772,0.0930414,-0.0769683
 ,-0.0715887,-0.0614929,-0.1866678\Polar=75.4229047,-15.3546554,54.2925
 592,-12.1267341,4.5207306,94.6254128\PG=C01 [X(C5H8)]\NImag=1\\0.53900
 789,0.00289068,0.12558676,0.06694066,-0.01497361,0.64117443,-0.0959738
 8,0.01835546,0.00796478,0.52198930,-0.00329767,-0.05356743,-0.01047287
 ,-0.22206220,0.26831959,-0.01744393,0.01567687,-0.33740289,0.04734487,
 -0.00689331,0.66956343,-0.14515110,-0.02717625,0.03807437,-0.01027846,
 0.01356006,0.00844970,0.42561629,-0.02798201,-0.03717635,0.01415303,-0
 .00631123,-0.00071976,-0.02326767,0.05395266,0.55094731,0.07159036,0.0
 0114543,-0.09284127,0.02112956,0.01180060,-0.02315162,0.06668585,-0.01
 231927,0.50564859,-0.26339684,0.01182490,-0.11962713,0.00270508,-0.001
 74671,0.00289721,-0.01700066,-0.00162021,-0.00936760,0.27876400,0.0079
 3930,-0.03799812,-0.00303423,0.00727353,0.00085839,0.01711965,0.008373
 03,0.00372859,-0.01471467,-0.00803770,0.01870603,-0.11734096,-0.002577
 25,-0.11891437,-0.02797766,0.00342692,-0.01150117,0.01948673,0.0003922
 1,0.00420247,0.12434945,-0.00303871,0.12944788,-0.02175340,0.00698124,
 -0.00055596,0.00544527,0.00175291,0.01790285,-0.10313990,0.08324526,-0
 .07197310,-0.00143706,-0.00712795,-0.00056044,0.47600055,0.02447734,-0
 .01818495,-0.01348460,0.00307266,0.00105808,0.00904408,0.05357538,-0.1
 9561627,0.05791542,-0.00126443,0.00479137,0.00209391,0.05073166,0.5985
 6177,-0.00102983,-0.00344378,-0.01121946,0.01783478,-0.01103620,0.0121
 7259,-0.06505455,0.07150279,-0.08768593,0.00213412,-0.00122071,-0.0014
 2394,0.22553877,-0.03779483,0.22343393,-0.01748077,-0.01913212,0.00377
 399,-0.00207099,0.00114557,-0.00493468,-0.10080657,-0.11071671,-0.0008
 0615,-0.00238749,0.00044958,0.00186796,0.01277318,0.02163369,0.0028070
 6,0.11069238,-0.00271817,0.00493898,0.00397326,0.00021317,0.00116196,-
 0.00142162,-0.09894499,-0.24802238,-0.00651967,0.00039821,-0.00120543,
 0.00024505,-0.00974407,-0.02317937,-0.00279188,0.11198617,0.27218555,0
 .01228809,0.01352246,-0.00605051,0.00342877,-0.00051676,0.00404146,-0.
 00391086,-0.00232668,-0.04160701,0.00072465,0.00048308,-0.00030826,0.0
 0237768,0.01160606,-0.00010171,-0.00047251,0.00226902,0.04411591,-0.00
 007351,0.00568993,0.02976625,-0.00167617,-0.00322552,0.00316300,-0.050
 75090,-0.01651693,-0.07199931,0.00140204,0.00009102,-0.00001511,-0.012
 23314,-0.00012086,-0.02007185,-0.00298792,-0.00273849,-0.01225331,0.06
 892201,-0.00551155,-0.00146474,-0.00272550,0.00037201,-0.00048729,-0.0
 0102601,-0.01275050,-0.05709642,-0.04554568,0.00051355,0.00189889,0.00
 010188,0.00772466,0.00681576,0.02042964,-0.00608727,-0.00559839,-0.026
 31785,0.01263190,0.05772245,-0.00282781,-0.00452339,-0.02099791,0.0013
 3632,0.00118549,-0.00072846,-0.06621671,-0.05400394,-0.26541569,-0.000
 58535,0.00138248,0.00201545,-0.00469937,0.00097154,-0.01013300,-0.0003
 0436,-0.00029447,0.00096444,0.07156382,0.05430016,0.29453522,0.0030403
 8,-0.00695083,-0.03880718,-0.20372448,0.10161986,-0.10349757,0.0012894
 2,0.00932877,0.00515634,0.00087807,-0.00591815,0.00028126,-0.01240324,
 -0.01050423,-0.00784768,0.00200418,0.00087995,-0.00234417,-0.00116704,
 0.00085362,0.00076399,0.35056139,0.00501379,0.01075827,0.00653481,0.10
 492349,-0.12282387,0.06492982,-0.00384440,-0.00524735,-0.00186169,-0.0
 0125205,0.00886591,-0.00198345,0.00233444,-0.00231702,0.00712288,-0.00
 167630,-0.00038218,0.00017013,0.00133292,0.00043038,-0.00070789,-0.254
 65590,0.45615387,-0.02606373,0.00834503,-0.04463091,-0.14346354,0.0641
 1161,-0.20361519,-0.00601601,0.00348634,0.00041516,-0.00001674,-0.0001
 5119,-0.00379505,-0.00153546,0.00514487,0.00481754,0.00081717,0.000776
 66,-0.00041640,0.00000528,0.00072373,0.00013073,0.17058641,0.07552903,
 0.58495667,-0.00123318,0.00334657,0.01029996,-0.20515892,0.09931875,0.
 06589771,0.00244033,0.00249439,-0.00075101,0.00039839,-0.00160668,0.00
 059942,0.00064486,0.00239931,0.00187313,0.00026601,-0.00043914,-0.0002
 4035,-0.00037173,-0.00000276,0.00015376,-0.00737607,0.01139819,0.01106
 381,0.21183693,0.00047273,0.00387515,0.01150374,0.08956660,-0.09461504
 ,-0.07398703,0.00039118,0.00152585,0.00032774,-0.00014277,-0.00082087,
 0.00059553,0.00236361,0.00265270,0.00280301,0.00027278,-0.00045677,-0.
 00015445,0.00000037,-0.00010569,0.00001176,0.02175828,-0.00825416,0.00
 162518,-0.11694525,0.09622767,0.02387624,-0.01143344,-0.01280989,0.076
 55469,-0.05740605,-0.09549093,0.00334699,-0.00347607,-0.00254688,-0.00
 051909,0.00100207,0.00042425,-0.00039304,0.00218390,-0.00272917,-0.000
 10127,0.00001473,0.00005505,0.00012331,-0.00017940,-0.00031785,-0.0127
 2878,0.01166157,0.00875128,-0.08779393,0.05603338,0.10473263,0.0013552
 5,-0.00304605,-0.00135917,0.00146145,0.00006672,0.00256366,-0.00417726
 ,0.00131852,-0.01200490,-0.00006797,-0.00190071,-0.00026214,-0.2674967
 1,-0.04776332,-0.13460298,0.00120029,-0.00003362,0.00099406,-0.0013379
 9,0.00217658,0.00122026,-0.00182249,0.00126251,0.00129179,0.00038650,0
 .00070445,-0.00005499,0.27444096,0.00075859,0.00019260,0.00208732,-0.0
 0029639,0.00015832,-0.00146860,0.01792623,0.00512952,0.01205550,0.0005
 2370,0.00055387,-0.00028397,-0.04636310,-0.06491050,-0.02071859,-0.000
 97755,0.00174109,-0.00042595,0.00272699,-0.00210172,0.00092788,0.00057
 548,-0.00039579,-0.00042578,-0.00001166,-0.00017879,0.00007833,0.04725
 687,0.05989307,-0.00274860,0.00696947,0.00184382,-0.00299875,-0.000459
 06,-0.00572440,-0.00831864,-0.01484528,0.00208893,-0.00036254,0.003077
 04,0.00093755,-0.13652571,-0.01599364,-0.09039608,-0.00024780,-0.00030
 812,0.00038091,-0.00186546,0.00126698,-0.00146329,0.00561563,-0.000828
 34,-0.00240508,-0.00078219,-0.00137518,0.00018585,0.14675032,0.0207623
 7,0.09500712,0.00149095,0.00526441,-0.00201836,-0.00106730,0.00038644,
 -0.00050160,0.00167444,0.01352343,0.00426277,0.00004757,0.00031016,-0.
 00007591,-0.07654329,-0.09666588,-0.02551900,-0.00099753,0.00139506,-0
 .00076907,0.00025249,-0.00022221,-0.00044655,0.00235579,0.00049019,-0.
 00042195,-0.00029638,-0.00036822,-0.00005101,-0.00333694,-0.02199672,-
 0.00019511,0.07647668,-0.00200144,0.00023259,0.00186646,0.00014545,0.0
 0002941,-0.00044505,-0.00707852,-0.01616338,-0.00249041,0.00017723,-0.
 00021074,-0.00012925,-0.09232211,-0.31156822,-0.02363367,0.00292880,-0
 .00117767,0.00160759,0.00004906,0.00047514,0.00043237,0.00021930,0.000
 19617,0.00009475,-0.00012547,-0.00012401,-0.00008605,0.00051405,0.0001
 9881,0.00205101,0.09772342,0.32802706,0.00012767,-0.00827104,0.0020502
 2,0.00171062,-0.00073492,0.00164522,0.01342843,0.01911043,-0.00000535,
 -0.00012260,-0.00070744,-0.00009001,-0.03097005,-0.02166340,-0.0317421
 3,-0.00298645,0.00412510,-0.00058942,0.00163418,-0.00094886,0.00131207
 ,-0.00298928,-0.00029086,0.00072248,0.00044044,0.00072018,0.00003787,-
 0.00518780,-0.01217098,0.00077781,0.02513829,0.02125182,0.02708397,-0.
 00392423,-0.00024483,0.01169259,-0.01832175,0.02209836,-0.01084338,0.0
 0057823,-0.00284850,-0.00050251,-0.00038478,0.00194076,-0.00001691,0.0
 0002515,0.00043955,0.01008392,-0.00056463,-0.00032127,0.00047697,-0.00
 001487,0.00007273,0.00016717,-0.08371896,0.12605432,0.01922076,-0.0020
 9489,0.00406880,-0.00296550,0.00025411,-0.00053049,0.00010477,0.000443
 97,-0.00026337,-0.00052768,0.10443459,-0.00577225,0.00122133,0.0064066
 1,0.00168758,-0.00313911,-0.01848362,0.00125362,-0.00257614,0.00094747
 ,-0.00001262,0.00220732,0.00011142,0.00037047,0.00127439,0.00455315,-0
 .00018553,-0.00009993,0.00023625,0.00005768,-0.00036972,0.00031760,0.1
 3977850,-0.26385192,-0.06435889,0.00110465,0.00209823,0.00173449,0.000
 22886,-0.00051218,-0.00146320,0.00056177,-0.00014702,-0.00100988,-0.14
 515290,0.26782528,-0.00027831,0.00019915,-0.00282573,-0.00290634,0.014
 21454,0.01020751,-0.00055244,0.00292474,0.00005396,0.00035137,-0.00206
 436,0.00022121,0.00100516,-0.00031709,-0.00529163,0.00068879,-0.000026
 98,-0.00048696,-0.00001716,0.00000091,0.00003005,0.01345853,-0.0665333
 2,-0.05847575,-0.00090906,0.00022250,-0.00072271,0.00051099,-0.0001768
 1,-0.00092978,0.00049608,-0.00051144,-0.00127897,-0.02549141,0.0718935
 3,0.06375214,0.00409245,0.00219688,-0.00614481,0.00667084,-0.00961656,
 -0.01099783,-0.00029385,0.00213255,-0.00142028,0.00047965,-0.00178619,
 -0.00033568,0.00011775,-0.00001086,-0.00614588,0.00035985,0.00006719,-
 0.00029994,0.00003674,0.00022924,-0.00012517,-0.04991694,0.00861879,-0
 .02546778,0.00055814,-0.00214257,0.00070636,-0.00085921,0.00040804,0.0
 0157406,-0.00050045,0.00003359,0.00030422,0.00328806,0.00608016,0.0136
 4381,0.03596697,0.00573065,0.00158591,-0.00183441,0.00305986,0.0037667
 6,0.02022247,0.00076250,0.00128678,-0.00074078,0.00063890,-0.00137522,
 0.00104571,0.00005297,0.00062228,-0.00577180,0.00035890,0.00009454,-0.
 00015291,0.00002193,-0.00011865,0.00000040,0.00301537,-0.07313230,-0.0
 9490133,-0.00093091,-0.00182427,-0.00012746,-0.00078487,0.00023170,0.0
 0114595,-0.00040186,0.00023187,0.00058985,-0.00531316,-0.00393051,-0.0
 1982537,-0.00621027,0.07256113,-0.00708984,-0.00063591,0.00262448,0.00
 004190,-0.00721999,-0.02001555,0.00059714,-0.00133062,0.00084464,0.000
 14426,0.00186698,-0.00121601,0.00038867,0.00029379,0.00029898,-0.00010
 176,-0.00004108,0.00000249,-0.00003366,-0.00008001,0.00006824,-0.02764
 750,-0.09374270,-0.28645547,0.00014833,0.00167366,0.00043050,0.0001408
 9,-0.00024073,-0.00030335,0.00010143,-0.00000813,0.00007625,-0.0013987
 8,-0.00088493,-0.00425333,0.03470892,0.10034968,0.30789811\\0.00054421
 ,0.00033652,0.00000374,-0.00054048,-0.00021528,-0.00000023,0.00000069,
 -0.00012662,0.00000092,0.,0.00000024,-0.00000007,-0.00000240,0.0000037
 1,0.00000011,-0.00000008,-0.00000001,0.00000018,0.00000035,0.00000010,
 -0.00000003,-0.00000356,0.00000236,-0.00000340,-0.00000040,-0.00000056
 ,-0.00000025,-0.00000072,-0.00000061,0.00000012,0.00000074,0.00000038,
 0.00000020,0.00000073,0.00000035,-0.00000002,0.00000092,-0.00000058,-0
 .00000128\\\@


 THE WORLD IS NOT A HAMBURGER - YOU CAN'T HAVE IT YOUR WAY.
 Job cpu time:       0 days  0 hours 28 minutes 32.8 seconds.
 Elapsed time:       0 days  0 hours  2 minutes 23.3 seconds.
 File lengths (MBytes):  RWF=     52 Int=      0 D2E=      0 Chk=     32 Scr=      1
 Normal termination of Gaussian 16 at Fri Jun 10 11:45:15 2022.
