 Entering Gaussian System, Link 0=g16
 Input=int_zmat_field_N100.gjf
 Output=int_zmat_field_N100.out
 Initial command:
 /software/gaussian/g16-a03/l1.exe "/local_scratch/11172523/Gau-12248.inp" -scrdir="/local_scratch/11172523/"
 Entering Link 1 = /software/gaussian/g16-a03/l1.exe PID=     12249.
  
 Copyright (c) 1988,1990,1992,1993,1995,1998,2003,2009,2016,
            Gaussian, Inc.  All Rights Reserved.
  
 This is part of the Gaussian(R) 16 program.  It is based on
 the Gaussian(R) 09 system (copyright 2009, Gaussian, Inc.),
 the Gaussian(R) 03 system (copyright 2003, Gaussian, Inc.),
 the Gaussian(R) 98 system (copyright 1998, Gaussian, Inc.),
 the Gaussian(R) 94 system (copyright 1995, Gaussian, Inc.),
 the Gaussian 92(TM) system (copyright 1992, Gaussian, Inc.),
 the Gaussian 90(TM) system (copyright 1990, Gaussian, Inc.),
 the Gaussian 88(TM) system (copyright 1988, Gaussian, Inc.),
 the Gaussian 86(TM) system (copyright 1986, Carnegie Mellon
 University), and the Gaussian 82(TM) system (copyright 1983,
 Carnegie Mellon University). Gaussian is a federally registered
 trademark of Gaussian, Inc.
  
 This software contains proprietary and confidential information,
 including trade secrets, belonging to Gaussian, Inc.
  
 This software is provided under written license and may be
 used, copied, transmitted, or stored only in accord with that
 written license.
  
 The following legend is applicable only to US Government
 contracts under FAR:
  
                    RESTRICTED RIGHTS LEGEND
  
 Use, reproduction and disclosure by the US Government is
 subject to restrictions as set forth in subparagraphs (a)
 and (c) of the Commercial Computer Software - Restricted
 Rights clause in FAR 52.227-19.
  
 Gaussian, Inc.
 340 Quinnipiac St., Bldg. 40, Wallingford CT 06492
  
  
 ---------------------------------------------------------------
 Warning -- This program may not be used in any manner that
 competes with the business of Gaussian, Inc. or will provide
 assistance to any competitor of Gaussian, Inc.  The licensee
 of this program is prohibited from giving any competitor of
 Gaussian, Inc. access to this program.  By using this program,
 the user acknowledges that Gaussian, Inc. is engaged in the
 business of creating and licensing software in the field of
 computational chemistry and represents and warrants to the
 licensee that it is not a competitor of Gaussian, Inc. and that
 it will not use this program in any manner prohibited above.
 ---------------------------------------------------------------
  

 Cite this work as:
 Gaussian 16, Revision A.03,
 M. J. Frisch, G. W. Trucks, H. B. Schlegel, G. E. Scuseria, 
 M. A. Robb, J. R. Cheeseman, G. Scalmani, V. Barone, 
 G. A. Petersson, H. Nakatsuji, X. Li, M. Caricato, A. V. Marenich, 
 J. Bloino, B. G. Janesko, R. Gomperts, B. Mennucci, H. P. Hratchian, 
 J. V. Ortiz, A. F. Izmaylov, J. L. Sonnenberg, D. Williams-Young, 
 F. Ding, F. Lipparini, F. Egidi, J. Goings, B. Peng, A. Petrone, 
 T. Henderson, D. Ranasinghe, V. G. Zakrzewski, J. Gao, N. Rega, 
 G. Zheng, W. Liang, M. Hada, M. Ehara, K. Toyota, R. Fukuda, 
 J. Hasegawa, M. Ishida, T. Nakajima, Y. Honda, O. Kitao, H. Nakai, 
 T. Vreven, K. Throssell, J. A. Montgomery, Jr., J. E. Peralta, 
 F. Ogliaro, M. J. Bearpark, J. J. Heyd, E. N. Brothers, K. N. Kudin, 
 V. N. Staroverov, T. A. Keith, R. Kobayashi, J. Normand, 
 K. Raghavachari, A. P. Rendell, J. C. Burant, S. S. Iyengar, 
 J. Tomasi, M. Cossi, J. M. Millam, M. Klene, C. Adamo, R. Cammi, 
 J. W. Ochterski, R. L. Martin, K. Morokuma, O. Farkas, 
 J. B. Foresman, and D. J. Fox, Gaussian, Inc., Wallingford CT, 2016.
 
 ******************************************
 Gaussian 16:  ES64L-G16RevA.03 25-Dec-2016
                10-Jun-2022 
 ******************************************
 %nprocshared=12
 Will use up to   12 processors via shared memory.
 %chk=checkpoint.chk
 %mem=12GB
 ----------------------------------------------------------------------
 # Opt=(Z-matrix, MaxStep=10) B3LYP/Def2TZVP geom=allcheckpoint guess=r
 ead Field=read NoSymm freq=noraman pop=none
 ----------------------------------------------------------------------
 1/8=10,10=7,18=40,26=3,29=7,38=1/1,3;
 2/12=2,15=1,29=3,40=1/2;
 3/5=44,7=101,11=2,14=-6,25=1,30=1,71=1,74=-5,116=-2/1,2,3;
 4/5=1/1;
 5/5=2,38=6/2;
 7/29=1,30=1/1,2,3,16;
 1/8=10,10=7,18=40,26=3/3(2);
 2/15=1,29=3/2;
 99//99;
 2/15=1,29=3/2;
 3/5=44,7=101,11=2,14=-2,25=1,30=1,71=1,74=-5/1,2,3;
 4/5=5,16=3,69=1/1;
 5/5=2,38=5/2;
 7/30=1/1,2,3,16;
 1/8=10,18=40,26=3/3(-5);
 2/15=1,29=3/2;
 99/9=1/99;
 Structure from the checkpoint file:  "checkpoint.chk"
 ------------------
 int_zmat_initalOpt
 ------------------
 Charge =  0 Multiplicity = 1
 Z-Matrix found in chk file.
 C
 C,1,R2
 C,1,R3,2,A3
 C,1,R4,2,A4,3,D4,0
 H,2,R5,1,A5,3,D5,0
 C,2,R6,1,A6,5,D6,0
 O,3,R7,1,A7,2,D7,0
 H,3,R8,1,A8,7,D8,0
 H,3,R9,1,A9,7,D9,0
 C,4,R10,1,A10,2,D10,0
 C,4,R11,1,A11,10,D11,0
 H,4,R12,1,A12,10,D12,0
 H,6,R13,2,A13,1,D13,0
 H,6,R14,2,A14,13,D14,0
 H,6,R15,2,A15,13,D15,0
 H,10,R16,4,A16,1,D16,0
 H,10,R17,4,A17,16,D17,0
 C,11,R18,4,A18,1,D18,0
 H,11,R19,4,A19,18,D19,0
 H,18,R20,11,A20,4,D20,0
 H,18,R21,11,A21,20,D21,0
      Variables:
 R2=1.32828524
 R3=1.51167216
 R4=1.52195313
 R5=1.08511309
 R6=1.49736776
 R7=1.43660661
 R8=1.09454523
 R9=1.09652612
 R10=1.52855029
 R11=1.49741334
 R12=1.10031196
 R13=1.09084424
 R14=1.09376827
 R15=1.09344671
 R16=1.09099373
 R17=1.09911673
 R18=1.32766946
 R19=1.08555083
 R20=1.08394185
 R21=1.08229564
 A3=126.65176078
 A4=127.60132528
 A5=118.49866955
 A6=126.21641205
 A7=106.5894899
 A8=112.84100991
 A9=111.78894591
 A10=100.61129951
 A11=116.4957468
 A12=107.02005634
 A13=112.77171047
 A14=110.5500113
 A15=110.86844753
 A16=113.6646473
 A17=110.55081797
 A18=126.65422507
 A19=114.98626607
 A20=122.58886303
 A21=120.88653935
 D4=-176.88000817
 D5=178.44319356
 D6=-182.15212104
 D7=194.73587801
 D8=-118.0788979
 D9=119.94022122
 D10=148.83511877
 D11=-128.25936148
 D12=111.70111086
 D13=7.43533858
 D14=-120.59407096
 D15=121.80741304
 D16=153.60192433
 D17=122.85088276
 D18=124.19256397
 D19=177.72617818
 D20=-0.97200922
 D21=179.34654141
 Recover connectivity data from disk.

 GradGradGradGradGradGradGradGradGradGradGradGradGradGradGradGradGradGrad
 Berny optimization.
 Initialization pass.
                       ----------------------------
                       !    Initial Parameters    !
                       ! (Angstroms and Degrees)  !
 ----------------------                            ----------------------
 !      Name          Value   Derivative information (Atomic Units)     !
 ------------------------------------------------------------------------
 !       R2          1.3283   estimate D2E/DX2                          !
 !       R3          1.5117   estimate D2E/DX2                          !
 !       R4          1.522    estimate D2E/DX2                          !
 !       R5          1.0851   estimate D2E/DX2                          !
 !       R6          1.4974   estimate D2E/DX2                          !
 !       R7          1.4366   estimate D2E/DX2                          !
 !       R8          1.0945   estimate D2E/DX2                          !
 !       R9          1.0965   estimate D2E/DX2                          !
 !       R10         1.5286   estimate D2E/DX2                          !
 !       R11         1.4974   estimate D2E/DX2                          !
 !       R12         1.1003   estimate D2E/DX2                          !
 !       R13         1.0908   estimate D2E/DX2                          !
 !       R14         1.0938   estimate D2E/DX2                          !
 !       R15         1.0934   estimate D2E/DX2                          !
 !       R16         1.091    estimate D2E/DX2                          !
 !       R17         1.0991   estimate D2E/DX2                          !
 !       R18         1.3277   estimate D2E/DX2                          !
 !       R19         1.0856   estimate D2E/DX2                          !
 !       R20         1.0839   estimate D2E/DX2                          !
 !       R21         1.0823   estimate D2E/DX2                          !
 !       A3        126.6518   estimate D2E/DX2                          !
 !       A4        127.6013   estimate D2E/DX2                          !
 !       A5        118.4987   estimate D2E/DX2                          !
 !       A6        126.2164   estimate D2E/DX2                          !
 !       A7        106.5895   estimate D2E/DX2                          !
 !       A8        112.841    estimate D2E/DX2                          !
 !       A9        111.7889   estimate D2E/DX2                          !
 !       A10       100.6113   estimate D2E/DX2                          !
 !       A11       116.4957   estimate D2E/DX2                          !
 !       A12       107.0201   estimate D2E/DX2                          !
 !       A13       112.7717   estimate D2E/DX2                          !
 !       A14       110.55     estimate D2E/DX2                          !
 !       A15       110.8684   estimate D2E/DX2                          !
 !       A16       113.6646   estimate D2E/DX2                          !
 !       A17       110.5508   estimate D2E/DX2                          !
 !       A18       126.6542   estimate D2E/DX2                          !
 !       A19       114.9863   estimate D2E/DX2                          !
 !       A20       122.5889   estimate D2E/DX2                          !
 !       A21       120.8865   estimate D2E/DX2                          !
 !       D4       -176.88     estimate D2E/DX2                          !
 !       D5        178.4432   estimate D2E/DX2                          !
 !       D6       -182.1521   estimate D2E/DX2                          !
 !       D7        194.7359   estimate D2E/DX2                          !
 !       D8       -118.0789   estimate D2E/DX2                          !
 !       D9        119.9402   estimate D2E/DX2                          !
 !       D10       148.8351   estimate D2E/DX2                          !
 !       D11      -128.2594   estimate D2E/DX2                          !
 !       D12       111.7011   estimate D2E/DX2                          !
 !       D13         7.4353   estimate D2E/DX2                          !
 !       D14      -120.5941   estimate D2E/DX2                          !
 !       D15       121.8074   estimate D2E/DX2                          !
 !       D16       153.6019   estimate D2E/DX2                          !
 !       D17       122.8509   estimate D2E/DX2                          !
 !       D18       124.1926   estimate D2E/DX2                          !
 !       D19       177.7262   estimate D2E/DX2                          !
 !       D20        -0.972    estimate D2E/DX2                          !
 !       D21       179.3465   estimate D2E/DX2                          !
 ------------------------------------------------------------------------
 Trust Radius=1.00D-01 FncErr=1.00D-07 GrdErr=1.00D-06 EigMax=2.50D+02 EigMin=1.00D-04
 Number of steps in this run=     67 maximum allowed number of steps=    114.
 GradGradGradGradGradGradGradGradGradGradGradGradGradGradGradGradGradGrad

 ---------------------------------------------------------------------------------------------------
                            Z-MATRIX (ANGSTROMS AND DEGREES)
   CD    Cent   Atom    N1       Length/X        N2       Alpha/Y        N3        Beta/Z          J
 ---------------------------------------------------------------------------------------------------
      1      1  C 
      2      2  C        1   1.328285(     1)
      3      3  C        1   1.511672(     2)      2  126.652(    21)
      4      4  C        1   1.521953(     3)      2  127.601(    22)      3 -176.880(    40)      0
      5      5  H        2   1.085113(     4)      1  118.499(    23)      3  178.443(    41)      0
      6      6  C        2   1.497368(     5)      1  126.216(    24)      5 -182.152(    42)      0
      7      7  O        3   1.436607(     6)      1  106.589(    25)      2  194.736(    43)      0
      8      8  H        3   1.094545(     7)      1  112.841(    26)      7 -118.079(    44)      0
      9      9  H        3   1.096526(     8)      1  111.789(    27)      7  119.940(    45)      0
     10     10  C        4   1.528550(     9)      1  100.611(    28)      2  148.835(    46)      0
     11     11  C        4   1.497413(    10)      1  116.496(    29)     10 -128.259(    47)      0
     12     12  H        4   1.100312(    11)      1  107.020(    30)     10  111.701(    48)      0
     13     13  H        6   1.090844(    12)      2  112.772(    31)      1    7.435(    49)      0
     14     14  H        6   1.093768(    13)      2  110.550(    32)     13 -120.594(    50)      0
     15     15  H        6   1.093447(    14)      2  110.868(    33)     13  121.807(    51)      0
     16     16  H       10   1.090994(    15)      4  113.665(    34)      1  153.602(    52)      0
     17     17  H       10   1.099117(    16)      4  110.551(    35)     16  122.851(    53)      0
     18     18  C       11   1.327669(    17)      4  126.654(    36)      1  124.193(    54)      0
     19     19  H       11   1.085551(    18)      4  114.986(    37)     18  177.726(    55)      0
     20     20  H       18   1.083942(    19)     11  122.589(    38)      4   -0.972(    56)      0
     21     21  H       18   1.082296(    20)     11  120.887(    39)     20  179.347(    57)      0
 ---------------------------------------------------------------------------------------------------
                         Z-Matrix orientation:                         
 ---------------------------------------------------------------------
 Center     Atomic      Atomic             Coordinates (Angstroms)
 Number     Number       Type             X           Y           Z
 ---------------------------------------------------------------------
      1          6           0        0.000000    0.000000    0.000000
      2          6           0        0.000000    0.000000    1.328285
      3          6           0        1.212782    0.000000   -0.902393
      4          6           0       -1.204019    0.065629   -0.928640
      5          1           0       -0.953276    0.025908    1.846034
      6          6           0        1.205533   -0.078147    2.212985
      7          8           0        0.747000    0.350210   -2.215495
      8          1           0        1.692616   -0.981488   -0.969258
      9          1           0        1.966672    0.724026   -0.571022
     10          6           0       -0.601123    0.811422   -2.118924
     11          6           0       -2.471279    0.606389   -0.342230
     12          1           0       -1.409894   -0.962491   -1.262213
     13          1           0        2.141927   -0.008414    1.657788
     14          1           0        1.216249   -1.022457    2.764794
     15          1           0        1.189231    0.715863    2.964589
     16          1           0       -1.095557    0.595303   -3.067130
     17          1           0       -0.622109    1.896512   -1.945153
     18          6           0       -3.185101    1.627021   -0.802093
     19          1           0       -2.840340    0.069572    0.526126
     20          1           0       -2.892813    2.196867   -1.676606
     21          1           0       -4.105765    1.924401   -0.317008
 ---------------------------------------------------------------------
                    Distance matrix (angstroms):
                    1          2          3          4          5
     1  C    0.000000
     2  C    1.328285   0.000000
     3  C    1.511672   2.539048   0.000000
     4  C    1.521953   2.558844   2.417834   0.000000
     5  H    2.077799   1.085113   3.499476   2.786264   0.000000
     6  C    2.521254   1.497368   3.116366   3.961871   2.192244
     7  O    2.364122   3.638548   1.436607   2.354454   4.414989
     8  H    2.183512   3.017776   1.094545   3.080356   3.992676
     9  H    2.172114   2.828318   1.096526   3.258014   3.854300
    10  C    2.347252   3.592075   2.329936   1.528550   4.057331
    11  C    2.567499   3.043936   3.775420   1.497413   2.725764
    12  H    2.123058   3.102398   2.816787   1.100312   3.293423
    13  H    2.708540   2.167140   2.723584   4.229711   3.101113
    14  H    3.188850   2.142017   3.807057   4.547866   2.578765
    15  H    3.273457   2.145745   3.932755   4.616025   2.513471
    16  H    3.310878   4.568841   3.220078   2.205778   4.948094
    17  H    2.787005   3.833950   2.837416   2.173488   4.240510
    18  C    3.665436   4.163001   4.690270   2.525598   3.815388
    19  H    2.889495   2.952259   4.298059   2.189500   2.303275
    20  H    4.000700   4.714230   4.720333   2.820223   4.569887
    21  H    4.545450   4.823652   5.686206   3.499894   4.268631
                    6          7          8          9         10
     6  C    0.000000
     7  O    4.472715   0.000000
     8  H    3.343642   2.054438   0.000000
     9  H    2.995582   2.081257   1.772703   0.000000
    10  C    4.777109   1.428102   3.130094   2.999534   0.000000
    11  C    4.529532   3.732569   4.500282   4.445401   2.587695
    12  H    4.438415   2.698911   3.116368   3.837093   2.129514
    13  H    1.090844   4.132404   2.837274   2.352611   4.739199
    14  H    1.093768   5.187262   3.764538   3.839402   5.524188
    15  H    1.093447   5.211770   4.313878   3.620087   5.390417
    16  H    5.798980   2.044595   3.829000   3.952767   1.090994
    17  H    4.952743   2.082929   3.820105   3.156698   1.099117
    18  C    5.592492   4.369138   5.533930   5.235414   3.012672
    19  H    4.385933   4.523743   4.887596   4.973873   3.544111
    20  H    6.091063   4.116890   5.623917   5.196747   2.714213
    21  H    6.214575   5.443497   6.518500   6.195152   4.094892
                   11         12         13         14         15
    11  C    0.000000
    12  H    2.105776   0.000000
    13  H    5.065543   4.695967   0.000000
    14  H    5.089656   4.808015   1.763696   0.000000
    15  H    4.934204   5.238147   1.771987   1.749973   0.000000
    16  H    3.052509   2.404840   5.759395   6.478652   6.451079
    17  H    2.766444   3.043174   4.924411   5.838111   5.364741
    18  C    1.327669   3.173112   6.091215   6.254143   5.844047
    19  H    1.085551   2.511869   5.109769   4.760261   4.754076
    20  H    2.118460   3.514586   6.428846   6.853793   6.355875
    21  H    2.099842   4.061438   6.831490   6.819480   6.345583
                   16         17         18         19         20
    16  H    0.000000
    17  H    1.782170   0.000000
    18  C    3.249773   2.819245   0.000000
    19  H    4.028914   3.790182   2.075734   0.000000
    20  H    2.780053   2.306172   1.083942   3.062706   0.000000
    21  H    4.288475   3.845451   1.082296   2.398451   1.842280
                   21
    21  H    0.000000
 Symmetry turned off by external request.
 Stoichiometry    C8H12O
 Framework group  C1[X(C8H12O)]
 Deg. of freedom    57
 Full point group                 C1      NOp   1
 Rotational constants (GHZ):           2.1299660           1.3446895           0.8781520
 Standard basis: def2TZVP (5D, 7F)
 The following finite field(s) will be applied:
 An electric field of              0.0043  0.0063 -0.0065
   351 basis functions,   555 primitive gaussians,   396 cartesian basis functions
    34 alpha electrons       34 beta electrons
       nuclear repulsion energy       444.5986981597 Hartrees.
 NAtoms=   21 NActive=   21 NUniq=   21 SFac= 1.00D+00 NAtFMM=   60 NAOKFM=F Big=F
 Integral buffers will be    131072 words long.
 Raffenetti 2 integral format.
 Two-electron integral symmetry is turned off.
 One-electron integrals computed using PRISM.
   1 Symmetry operations used in ECPInt.
 ECPInt:  NShTT=   10878 NPrTT=   32112 LenC2=   10564 LenP2D=   24719.
 LDataN:  DoStor=T MaxTD1= 6 Len=  172
 NBasis=   351 RedAO= T EigKep=  7.42D-05  NBF=   351
 NBsUse=   351 1.00D-06 EigRej= -1.00D+00 NBFU=   351
 The nuclear repulsion energy is now       444.9992944096 hartrees.
 Initial guess from the checkpoint file:  "checkpoint.chk"
 B after Tr=     0.000000    0.000000   -0.000000
         Rot=    1.000000    0.000000    0.000000    0.000000 Ang=   0.00 deg.
 Requested convergence on RMS density matrix=1.00D-08 within 128 cycles.
 Requested convergence on MAX density matrix=1.00D-06.
 Requested convergence on             energy=1.00D-06.
 No special actions if energy rises.
 SCF Done:  E(RB3LYP) =  -387.400744731     A.U. after   10 cycles
            NFock= 10  Conv=0.48D-08     -V/T= 2.0053
   1 Symmetry operations used in ECPInt.
 ECPInt:  NShTT=   10878 NPrTT=   32112 LenC2=   10564 LenP2D=   24719.
 LDataN:  DoStor=T MaxTD1= 7 Len=  274
 Calling FoFJK, ICntrl=      2127 FMM=F ISym2X=0 I1Cent= 0 IOpClX= 0 NMat=1 NMatS=1 NMatT=0.
 -------------------------------------------------------------------
 Center     Atomic                   Forces (Hartrees/Bohr)
 Number     Number              X              Y              Z
 -------------------------------------------------------------------
      1        6           0.000472842    0.001222805    0.000047319
      2        6          -0.000335433   -0.000792410    0.000211694
      3        6          -0.000026693   -0.000553306    0.000853822
      4        6          -0.000067785   -0.000205402   -0.000241035
      5        1           0.000127430   -0.000185430    0.000033080
      6        6          -0.000154143    0.000048530   -0.000027339
      7        8           0.000460173    0.000752195   -0.001185764
      8        1          -0.000025860    0.000014480   -0.000060928
      9        1           0.000177192    0.000172933    0.000051469
     10        6          -0.000176383   -0.000656698    0.000430633
     11        6           0.000064740   -0.000030373    0.000210854
     12        1          -0.000145847    0.000074045    0.000008432
     13        1           0.000188299   -0.000127626   -0.000174151
     14        1          -0.000126183    0.000119884   -0.000013327
     15        1          -0.000194315   -0.000182208    0.000099586
     16        1          -0.000161299   -0.000068884   -0.000158610
     17        1          -0.000075053    0.000368263    0.000119476
     18        6          -0.000068985    0.000121029    0.000297396
     19        1          -0.000022067   -0.000016896   -0.000154638
     20        1           0.000110769    0.000060650   -0.000336232
     21        1          -0.000021401   -0.000135580   -0.000011736
 -------------------------------------------------------------------
 Cartesian Forces:  Max     0.001222805 RMS     0.000342432
 -----------------------------------------------------------------------------------------------
                       Internal Coordinate Forces (Hartree/Bohr or radian)
  Cent   Atom   N1       Length/X         N2         Alpha/Y        N3         Beta/Z          J
 -----------------------------------------------------------------------------------------------
      1  C 
      2  C        1   0.000130(     1)
      3  C        1   0.000673(     2)      2  -0.002304(    21)
      4  C        1   0.000324(     3)      2  -0.001820(    22)      3  -0.001173(    40)     0
      5  H        2  -0.000101(     4)      1   0.000189(    23)      3  -0.000213(    41)     0
      6  C        2  -0.000291(     5)      1   0.000483(    24)      5  -0.000541(    42)     0
      7  O        3   0.001118(     6)      1   0.002147(    25)      2   0.001525(    43)     0
      8  H        3  -0.000021(     7)      1   0.000053(    26)      7   0.000113(    44)     0
      9  H        3   0.000252(     8)      1   0.000040(    27)      7  -0.000033(    45)     0
     10  C        4  -0.000642(     9)      1   0.000704(    28)      2   0.000161(    46)     0
     11  C        4  -0.000052(    10)      1   0.000169(    29)     10   0.000007(    47)     0
     12  H        4  -0.000044(    11)      1   0.000275(    30)     10   0.000171(    48)     0
     13  H        6   0.000242(    12)      2  -0.000086(    31)      1   0.000032(    49)     0
     14  H        6  -0.000111(    13)      2  -0.000169(    32)     13  -0.000206(    50)     0
     15  H        6  -0.000061(    14)      2  -0.000147(    33)     13   0.000518(    51)     0
     16  H       10   0.000225(    15)      4  -0.000144(    34)      1  -0.000022(    52)     0
     17  H       10   0.000384(    16)      4  -0.000172(    35)     16  -0.000069(    53)     0
     18  C       11   0.000042(    17)      4  -0.000150(    36)      1  -0.000063(    54)     0
     19  H       11  -0.000108(    18)      4  -0.000006(    37)     18  -0.000212(    55)     0
     20  H       18   0.000333(    19)     11  -0.000184(    38)      4  -0.000007(    56)     0
     21  H       18  -0.000024(    20)     11  -0.000182(    39)     20  -0.000180(    57)     0
 -----------------------------------------------------------------------------------------------
 Internal  Forces:  Max     0.002304275 RMS     0.000615663

 GradGradGradGradGradGradGradGradGradGradGradGradGradGradGradGradGradGrad
 Berny optimization.
 Search for a local minimum.
 Step number   1 out of a maximum of   67
 All quantities printed in internal units (Hartrees-Bohrs-Radians)
 Second derivative matrix not updated -- first step.
 ITU=  0
     Eigenvalues ---    0.00858   0.03057   0.03653   0.03834   0.05518
     Eigenvalues ---    0.06750   0.07939   0.09514   0.11019   0.12451
     Eigenvalues ---    0.14056   0.14916   0.15523   0.16269   0.16797
     Eigenvalues ---    0.19301   0.20746   0.21312   0.21925   0.22366
     Eigenvalues ---    0.23899   0.24304   0.24793   0.28380   0.29215
     Eigenvalues ---    0.30088   0.31593   0.32649   0.32655   0.33296
     Eigenvalues ---    0.33649   0.33782   0.34070   0.34292   0.34381
     Eigenvalues ---    0.34418   0.34691   0.34715   0.34753   0.35332
     Eigenvalues ---    0.35384   0.35522   0.35628   0.35722   0.38208
     Eigenvalues ---    0.40191   0.41282   0.43664   0.47482   0.53366
     Eigenvalues ---    0.54450   0.54977   0.59912   0.60060   1.32858
     Eigenvalues ---    1.57118  20.48207
 RFO step:  Lambda=-3.35243914D-05 EMin= 8.58268299D-03
 Linear search not attempted -- first point.
 Variable       Old X    -DE/DX   Delta X   Delta X   Delta X     New X
                                 (Linear)    (Quad)   (Total)
    R2        2.51010   0.00013   0.00000   0.00022   0.00022   2.51031
    R3        2.85665   0.00067   0.00000   0.00019   0.00019   2.85684
    R4        2.87607   0.00032   0.00000  -0.00006  -0.00006   2.87601
    R5        2.05057  -0.00010   0.00000  -0.00028  -0.00028   2.05028
    R6        2.82961  -0.00029   0.00000  -0.00089  -0.00089   2.82873
    R7        2.71479   0.00112   0.00000   0.00275   0.00275   2.71754
    R8        2.06839  -0.00002   0.00000  -0.00007  -0.00007   2.06832
    R9        2.07213   0.00025   0.00000   0.00079   0.00079   2.07293
   R10        2.88854  -0.00064   0.00000  -0.00045  -0.00045   2.88809
   R11        2.82970  -0.00005   0.00000  -0.00018  -0.00018   2.82952
   R12        2.07929  -0.00004   0.00000  -0.00017  -0.00017   2.07911
   R13        2.06140   0.00024   0.00000   0.00070   0.00070   2.06210
   R14        2.06692  -0.00011   0.00000  -0.00031  -0.00031   2.06661
   R15        2.06631  -0.00006   0.00000  -0.00017  -0.00017   2.06615
   R16        2.06168   0.00022   0.00000   0.00062   0.00062   2.06230
   R17        2.07703   0.00038   0.00000   0.00118   0.00118   2.07821
   R18        2.50893   0.00004   0.00000   0.00007   0.00007   2.50900
   R19        2.05139  -0.00011   0.00000  -0.00030  -0.00030   2.05109
   R20        2.04835   0.00033   0.00000   0.00094   0.00094   2.04929
   R21        2.04524  -0.00002   0.00000  -0.00005  -0.00005   2.04520
    A3        2.21049  -0.00230   0.00000  -0.00039  -0.00039   2.21010
    A4        2.22706  -0.00182   0.00000   0.00135   0.00135   2.22842
    A5        2.06819   0.00019   0.00000   0.00004   0.00004   2.06823
    A6        2.20289   0.00048   0.00000   0.00097   0.00097   2.20387
    A7        1.86034   0.00215   0.00000   0.00007   0.00007   1.86041
    A8        1.96945   0.00005   0.00000   0.00158   0.00158   1.97103
    A9        1.95109   0.00004   0.00000  -0.00137  -0.00137   1.94972
   A10        1.75600   0.00070   0.00000  -0.00232  -0.00232   1.75368
   A11        2.03323   0.00017   0.00000  -0.00000  -0.00000   2.03323
   A12        1.86785   0.00027   0.00000   0.00218   0.00218   1.87004
   A13        1.96824  -0.00009   0.00000   0.00068   0.00068   1.96891
   A14        1.92946  -0.00017   0.00000  -0.00101  -0.00101   1.92845
   A15        1.93502  -0.00015   0.00000  -0.00050  -0.00050   1.93452
   A16        1.98382  -0.00014   0.00000   0.00093   0.00093   1.98475
   A17        1.92948  -0.00017   0.00000  -0.00337  -0.00337   1.92610
   A18        2.21053  -0.00015   0.00000  -0.00054  -0.00054   2.20999
   A19        2.00689  -0.00001   0.00000   0.00054   0.00054   2.00743
   A20        2.13958  -0.00018   0.00000  -0.00017  -0.00017   2.13941
   A21        2.10987  -0.00018   0.00000  -0.00042  -0.00042   2.10945
    D4       -3.08714  -0.00117   0.00000   0.00379   0.00379  -3.08335
    D5        3.11442  -0.00021   0.00000  -0.00025  -0.00025   3.11417
    D6       -3.17915  -0.00054   0.00000  -0.00553  -0.00553  -3.18469
    D7        3.39878   0.00153   0.00000   0.02036   0.02036   3.41914
    D8       -2.06087   0.00011   0.00000  -0.00171  -0.00171  -2.06257
    D9        2.09335  -0.00003   0.00000  -0.00174  -0.00174   2.09161
   D10        2.59766   0.00016   0.00000  -0.01537  -0.01537   2.58229
   D11       -2.23855   0.00001   0.00000   0.00331   0.00331  -2.23523
   D12        1.94955   0.00017   0.00000   0.00208   0.00208   1.95163
   D13        0.12977   0.00003   0.00000   0.00214   0.00214   0.13191
   D14       -2.10476  -0.00021   0.00000   0.00023   0.00023  -2.10453
   D15        2.12594   0.00052   0.00000   0.00292   0.00292   2.12886
   D16        2.68086  -0.00002   0.00000   0.00679   0.00679   2.68765
   D17        2.14415  -0.00007   0.00000  -0.00215  -0.00215   2.14200
   D18        2.16757  -0.00006   0.00000  -0.00148  -0.00148   2.16609
   D19        3.10191  -0.00021   0.00000  -0.00068  -0.00068   3.10122
   D20       -0.01696  -0.00001   0.00000  -0.00007  -0.00007  -0.01704
   D21        3.13019  -0.00018   0.00000  -0.00165  -0.00165   3.12853
         Item               Value     Threshold  Converged?
 Maximum Force            0.002304     0.000450     NO 
 RMS     Force            0.000616     0.000300     NO 
 Maximum Displacement     0.020355     0.001800     NO 
 RMS     Displacement     0.003819     0.001200     NO 
 Predicted change in Energy=-1.677614D-05
 GradGradGradGradGradGradGradGradGradGradGradGradGradGradGradGradGradGrad

 ---------------------------------------------------------------------------------------------------
                            Z-MATRIX (ANGSTROMS AND DEGREES)
   CD    Cent   Atom    N1       Length/X        N2       Alpha/Y        N3        Beta/Z          J
 ---------------------------------------------------------------------------------------------------
      1      1  C 
      2      2  C        1   1.328400(     1)
      3      3  C        1   1.511775(     2)      2  126.629(    21)
      4      4  C        1   1.521921(     3)      2  127.679(    22)      3 -176.663(    40)      0
      5      5  H        2   1.084963(     4)      1  118.501(    23)      3  178.429(    41)      0
      6      6  C        2   1.496898(     5)      1  126.272(    24)      5 -182.469(    42)      0
      7      7  O        3   1.438063(     6)      1  106.593(    25)      2  195.902(    43)      0
      8      8  H        3   1.094507(     7)      1  112.932(    26)      7 -118.177(    44)      0
      9      9  H        3   1.096946(     8)      1  111.711(    27)      7  119.840(    45)      0
     10     10  C        4   1.528313(     9)      1  100.478(    28)      2  147.954(    46)      0
     11     11  C        4   1.497319(    10)      1  116.496(    29)     10 -128.070(    47)      0
     12     12  H        4   1.100220(    11)      1  107.145(    30)     10  111.820(    48)      0
     13     13  H        6   1.091216(    12)      2  112.810(    31)      1    7.558(    49)      0
     14     14  H        6   1.093603(    13)      2  110.492(    32)     13 -120.581(    50)      0
     15     15  H        6   1.093358(    14)      2  110.840(    33)     13  121.975(    51)      0
     16     16  H       10   1.091320(    15)      4  113.718(    34)      1  153.991(    52)      0
     17     17  H       10   1.099742(    16)      4  110.358(    35)     16  122.728(    53)      0
     18     18  C       11   1.327704(    17)      4  126.623(    36)      1  124.108(    54)      0
     19     19  H       11   1.085391(    18)      4  115.017(    37)     18  177.687(    55)      0
     20     20  H       18   1.084438(    19)     11  122.579(    38)      4   -0.976(    56)      0
     21     21  H       18   1.082272(    20)     11  120.862(    39)     20  179.252(    57)      0
 ---------------------------------------------------------------------------------------------------
                         Z-Matrix orientation:                         
 ---------------------------------------------------------------------
 Center     Atomic      Atomic             Coordinates (Angstroms)
 Number     Number       Type             X           Y           Z
 ---------------------------------------------------------------------
      1          6           0        0.000000    0.000000    0.000000
      2          6           0        0.000000    0.000000    1.328400
      3          6           0        1.213218    0.000000   -0.901978
      4          6           0       -1.202480    0.070119   -0.930253
      5          1           0       -0.953118    0.026143    1.846113
      6          6           0        1.203822   -0.085032    2.213998
      7          8           0        0.751994    0.377613   -2.210682
      8          1           0        1.683311   -0.984965   -0.984439
      9          1           0        1.974354    0.711237   -0.558316
     10          6           0       -0.598373    0.833642   -2.108314
     11          6           0       -2.472684    0.600752   -0.341207
     12          1           0       -1.405084   -0.954452   -1.276213
     13          1           0        2.141826   -0.018658    1.660377
     14          1           0        1.208840   -1.030541    2.763504
     15          1           0        1.188322    0.706124    2.968493
     16          1           0       -1.091785    0.633031   -3.060826
     17          1           0       -0.622405    1.916068   -1.915418
     18          6           0       -3.188012    1.624244   -0.792394
     19          1           0       -2.842973    0.053615    0.519954
     20          1           0       -2.894552    2.204164   -1.660484
     21          1           0       -4.111544    1.912752   -0.307455
 ---------------------------------------------------------------------
                    Distance matrix (angstroms):
                    1          2          3          4          5
     1  C    0.000000
     2  C    1.328400   0.000000
     3  C    1.511775   2.538993   0.000000
     4  C    1.521921   2.559763   2.416880   0.000000
     5  H    2.077799   1.084963   3.499386   2.787889   0.000000
     6  C    2.521548   1.496898   3.117151   3.962408   2.190910
     7  O    2.365418   3.637744   1.438063   2.356696   4.414581
     8  H    2.184677   3.025379   1.094507   3.073098   3.998140
     9  H    2.171554   2.821990   1.096946   3.262153   3.849769
    10  C    2.344781   3.586643   2.330679   1.528313   4.051592
    11  C    2.567390   3.043461   3.776405   1.497319   2.724634
    12  H    2.124608   3.109541   2.811856   1.100220   3.303749
    13  H    2.710095   2.167481   2.725495   4.231267   3.100835
    14  H    3.187517   2.140755   3.807597   4.546401   2.575315
    15  H    3.274549   2.144907   3.934436   4.617430   2.511548
    16  H    3.310798   4.567059   3.220930   2.206460   4.946271
    17  H    2.779844   3.818515   2.840403   2.171305   4.222595
    18  C    3.664625   4.159250   4.692654   2.525203   3.809252
    19  H    2.890627   2.956173   4.298541   2.189656   2.308897
    20  H    3.999247   4.708523   4.723075   2.819661   4.561706
    21  H    4.545100   4.820729   5.689039   3.499403   4.262957
                    6          7          8          9         10
     6  C    0.000000
     7  O    4.471687   0.000000
     8  H    3.357051   2.056124   0.000000
     9  H    2.985547   2.082255   1.772960   0.000000
    10  C    4.772238   1.428961   3.126741   3.006061   0.000000
    11  C    4.529467   3.734069   4.494501   4.453705   2.586493
    12  H    4.443406   2.701965   3.102298   3.835427   2.130835
    13  H    1.091216   4.132041   2.852900   2.341664   4.736891
    14  H    1.093603   5.189811   3.778132   3.828092   5.520490
    15  H    1.093358   5.207894   4.327872   3.613344   5.383541
    16  H    5.797344   2.046339   3.824978   3.958521   1.091320
    17  H    4.938784   2.083986   3.820870   3.168044   1.099742
    18  C    5.590012   4.369128   5.529435   5.247705   3.010470
    19  H    4.389255   4.526051   4.881506   4.980138   3.543228
    20  H    6.086764   4.115373   5.620001   5.210552   2.711332
    21  H    6.213049   5.443612   6.514247   6.208439   4.092669
                   11         12         13         14         15
    11  C    0.000000
    12  H    2.105390   0.000000
    13  H    5.067909   4.698919   0.000000
    14  H    5.084680   4.812245   1.763876   0.000000
    15  H    4.936414   5.244121   1.773598   1.748842   0.000000
    16  H    3.050287   2.408963   5.759401   6.479442   6.446466
    17  H    2.762558   3.043199   4.916345   5.824799   5.347456
    18  C    1.327704   3.172158   6.092814   6.246967   5.842903
    19  H    1.085391   2.511959   5.114099   4.756690   4.761560
    20  H    2.118818   3.513265   6.429164   6.846372   6.351489
    21  H    2.099605   4.060083   6.834276   6.811772   6.346366
                   16         17         18         19         20
    16  H    0.000000
    17  H    1.782824   0.000000
    18  C    3.243834   2.815792   0.000000
    19  H    4.027949   3.785590   2.075617   0.000000
    20  H    2.771170   2.304483   1.084438   3.062977   0.000000
    21  H    4.282251   3.841828   1.082272   2.397971   1.843007
                   21
    21  H    0.000000
 Symmetry turned off by external request.
 Stoichiometry    C8H12O
 Framework group  C1[X(C8H12O)]
 Deg. of freedom    57
 Full point group                 C1      NOp   1
 Rotational constants (GHZ):           2.1292953           1.3452415           0.8786269
 Standard basis: def2TZVP (5D, 7F)
 The following finite field(s) will be applied:
 An electric field of              0.0043  0.0063 -0.0065
   351 basis functions,   555 primitive gaussians,   396 cartesian basis functions
    34 alpha electrons       34 beta electrons
       nuclear repulsion energy       444.5925083283 Hartrees.
 NAtoms=   21 NActive=   21 NUniq=   21 SFac= 1.00D+00 NAtFMM=   60 NAOKFM=F Big=F
 Integral buffers will be    131072 words long.
 Raffenetti 2 integral format.
 Two-electron integral symmetry is turned off.
 One-electron integrals computed using PRISM.
   1 Symmetry operations used in ECPInt.
 ECPInt:  NShTT=   10878 NPrTT=   32112 LenC2=   10564 LenP2D=   24719.
 LDataN:  DoStor=T MaxTD1= 6 Len=  172
 NBasis=   351 RedAO= T EigKep=  7.39D-05  NBF=   351
 NBsUse=   351 1.00D-06 EigRej= -1.00D+00 NBFU=   351
 The nuclear repulsion energy is now       444.9941290506 hartrees.
 Initial guess from the checkpoint file:  "checkpoint.chk"
 B after Tr=     0.001466    0.004483    0.001413
         Rot=    0.999992   -0.003784    0.000649   -0.001285 Ang=  -0.46 deg.
 ExpMin= 9.52D-02 ExpMax= 2.70D+04 ExpMxC= 9.22D+02 IAcc=2 IRadAn=         4 AccDes= 0.00D+00
 Harris functional with IExCor=  402 and IRadAn=       4 diagonalized for initial guess.
 HarFok:  IExCor=  402 AccDes= 0.00D+00 IRadAn=         4 IDoV= 1 UseB2=F ITyADJ=14
 ICtDFT=  3500011 ScaDFX=  1.000000  1.000000  1.000000  1.000000
 FoFCou: FMM=F IPFlag=           0 FMFlag=      100000 FMFlg1=           0
         NFxFlg=           0 DoJE=T BraDBF=F KetDBF=T FulRan=T
         wScrn=  0.000000 ICntrl=       500 IOpCl=  0 I1Cent=   200000004 NGrid=           0
         NMat0=    1 NMatS0=      1 NMatT0=    0 NMatD0=    1 NMtDS0=    0 NMtDT0=    0
 Symmetry not used in FoFCou.
 Requested convergence on RMS density matrix=1.00D-08 within 128 cycles.
 Requested convergence on MAX density matrix=1.00D-06.
 Requested convergence on             energy=1.00D-06.
 No special actions if energy rises.
 Integral accuracy reduced to 1.0D-05 until final iterations.
 Initial convergence to 1.0D-05 achieved.  Increase integral accuracy.
 SCF Done:  E(RB3LYP) =  -387.400767978     A.U. after    9 cycles
            NFock=  9  Conv=0.96D-08     -V/T= 2.0053
   1 Symmetry operations used in ECPInt.
 ECPInt:  NShTT=   10878 NPrTT=   32112 LenC2=   10564 LenP2D=   24719.
 LDataN:  DoStor=T MaxTD1= 7 Len=  274
 Calling FoFJK, ICntrl=      2127 FMM=F ISym2X=0 I1Cent= 0 IOpClX= 0 NMat=1 NMatS=1 NMatT=0.
 -------------------------------------------------------------------
 Center     Atomic                   Forces (Hartrees/Bohr)
 Number     Number              X              Y              Z
 -------------------------------------------------------------------
      1        6           0.000712787    0.000828439   -0.000200213
      2        6          -0.000546767   -0.001185112   -0.000021076
      3        6           0.000190602    0.000217955    0.000841515
      4        6           0.000146994    0.000128329    0.000007072
      5        1          -0.000039496   -0.000079806    0.000006981
      6        6           0.000069615    0.000148501   -0.000031709
      7        8          -0.000054280    0.000567599   -0.000435610
      8        1          -0.000139217   -0.000091251   -0.000056530
      9        1          -0.000024879   -0.000122731   -0.000193914
     10        6          -0.000165752   -0.000127230    0.000151839
     11        6          -0.000011632    0.000086797    0.000059369
     12        1           0.000027228   -0.000008449    0.000014309
     13        1          -0.000031852   -0.000051378    0.000035844
     14        1          -0.000076072   -0.000035918   -0.000020764
     15        1          -0.000030871   -0.000059303    0.000056267
     16        1           0.000008204   -0.000130857   -0.000030938
     17        1           0.000031300   -0.000014360   -0.000131272
     18        6          -0.000036131    0.000137054    0.000048450
     19        1          -0.000021346   -0.000090827   -0.000057879
     20        1          -0.000005373   -0.000076472   -0.000030767
     21        1          -0.000003063   -0.000040980   -0.000010975
 -------------------------------------------------------------------
 Cartesian Forces:  Max     0.001185112 RMS     0.000269688
 -----------------------------------------------------------------------------------------------
                       Internal Coordinate Forces (Hartree/Bohr or radian)
  Cent   Atom   N1       Length/X         N2         Alpha/Y        N3         Beta/Z          J
 -----------------------------------------------------------------------------------------------
      1  C 
      2  C        1   0.000026(     1)
      3  C        1  -0.000115(     2)      2  -0.000220(    21)
      4  C        1   0.000005(     3)      2  -0.000172(    22)      3  -0.000482(    40)     0
      5  H        2   0.000036(     4)      1  -0.000024(    23)      3  -0.000037(    41)     0
      6  C        2  -0.000032(     5)      1   0.000343(    24)      5  -0.000182(    42)     0
      7  O        3   0.000563(     6)      1   0.000158(    25)      2   0.001365(    43)     0
      8  H        3   0.000027(     7)      1  -0.000198(    26)      7   0.000276(    44)     0
      9  H        3  -0.000158(     8)      1   0.000344(    27)      7  -0.000060(    45)     0
     10  C        4  -0.000178(     9)      1   0.000496(    28)      2   0.000728(    46)     0
     11  C        4   0.000075(    10)      1   0.000106(    29)     10  -0.000193(    47)     0
     12  H        4  -0.000002(    11)      1  -0.000066(    30)     10  -0.000009(    48)     0
     13  H        6  -0.000049(    12)      2   0.000039(    31)      1   0.000061(    49)     0
     14  H        6   0.000020(    13)      2  -0.000173(    32)     13  -0.000016(    50)     0
     15  H        6  -0.000004(    14)      2   0.000029(    33)     13   0.000166(    51)     0
     16  H       10   0.000047(    15)      4  -0.000129(    34)      1  -0.000259(    52)     0
     17  H       10  -0.000038(    16)      4   0.000265(    35)     16  -0.000052(    53)     0
     18  C       11   0.000037(    17)      4   0.000036(    36)      1  -0.000047(    54)     0
     19  H       11   0.000007(    18)      4  -0.000090(    37)     18  -0.000186(    55)     0
     20  H       18  -0.000018(    19)     11  -0.000088(    38)      4   0.000059(    56)     0
     21  H       18  -0.000013(    20)     11  -0.000046(    39)     20  -0.000059(    57)     0
 -----------------------------------------------------------------------------------------------
 Internal  Forces:  Max     0.001365280 RMS     0.000268408

 GradGradGradGradGradGradGradGradGradGradGradGradGradGradGradGradGradGrad
 Berny optimization.
 Search for a local minimum.
 Step number   2 out of a maximum of   67
 All quantities printed in internal units (Hartrees-Bohrs-Radians)
 Update second derivatives using D2CorN and points    1    2
 DE= -2.32D-05 DEPred=-1.68D-05 R= 1.39D+00
 TightC=F SS=  1.41D+00  RLast= 2.88D-02 DXNew= 1.6818D-01 8.6502D-02
 Trust test= 1.39D+00 RLast= 2.88D-02 DXMaxT set to 1.00D-01
 ITU=  1  0
     Eigenvalues ---    0.00617   0.03060   0.03637   0.03825   0.05552
     Eigenvalues ---    0.06576   0.07947   0.09476   0.11022   0.12448
     Eigenvalues ---    0.13977   0.14918   0.15515   0.16172   0.16481
     Eigenvalues ---    0.19287   0.20753   0.21314   0.21923   0.22393
     Eigenvalues ---    0.23900   0.24143   0.24786   0.28368   0.29115
     Eigenvalues ---    0.30089   0.31608   0.32648   0.32655   0.33240
     Eigenvalues ---    0.33649   0.33788   0.34087   0.34292   0.34382
     Eigenvalues ---    0.34418   0.34679   0.34719   0.34751   0.35332
     Eigenvalues ---    0.35385   0.35525   0.35619   0.35721   0.38201
     Eigenvalues ---    0.40181   0.41211   0.43656   0.47466   0.53348
     Eigenvalues ---    0.54422   0.54952   0.59912   0.60060   1.32763
     Eigenvalues ---    1.57102  20.48202
 RFO step:  Lambda=-2.01162358D-05 EMin= 6.17017597D-03
 Quartic linear search produced a step of  0.57458.
 Variable       Old X    -DE/DX   Delta X   Delta X   Delta X     New X
                                 (Linear)    (Quad)   (Total)
    R2        2.51031   0.00003   0.00012  -0.00005   0.00007   2.51038
    R3        2.85684  -0.00012   0.00011  -0.00117  -0.00106   2.85578
    R4        2.87601   0.00001  -0.00003  -0.00057  -0.00061   2.87541
    R5        2.05028   0.00004  -0.00016   0.00032   0.00016   2.05044
    R6        2.82873  -0.00003  -0.00051   0.00033  -0.00018   2.82855
    R7        2.71754   0.00056   0.00158   0.00095   0.00253   2.72008
    R8        2.06832   0.00003  -0.00004   0.00016   0.00012   2.06844
    R9        2.07293  -0.00016   0.00046  -0.00115  -0.00069   2.07224
   R10        2.88809  -0.00018  -0.00026  -0.00006  -0.00031   2.88778
   R11        2.82952   0.00007  -0.00010   0.00045   0.00035   2.82987
   R12        2.07911  -0.00000  -0.00010   0.00006  -0.00004   2.07907
   R13        2.06210  -0.00005   0.00040  -0.00061  -0.00021   2.06189
   R14        2.06661   0.00002  -0.00018   0.00028   0.00010   2.06671
   R15        2.06615  -0.00000  -0.00010   0.00009  -0.00001   2.06614
   R16        2.06230   0.00005   0.00035  -0.00013   0.00023   2.06252
   R17        2.07821  -0.00004   0.00068  -0.00080  -0.00012   2.07809
   R18        2.50900   0.00004   0.00004   0.00006   0.00010   2.50909
   R19        2.05109   0.00001  -0.00017   0.00020   0.00003   2.05112
   R20        2.04929  -0.00002   0.00054  -0.00060  -0.00006   2.04923
   R21        2.04520  -0.00001  -0.00003  -0.00001  -0.00004   2.04516
    A3        2.21010  -0.00022  -0.00023   0.00055   0.00032   2.21042
    A4        2.22842  -0.00017   0.00078  -0.00050   0.00028   2.22870
    A5        2.06823  -0.00002   0.00002  -0.00095  -0.00092   2.06731
    A6        2.20387   0.00034   0.00056   0.00104   0.00160   2.20547
    A7        1.86041   0.00016   0.00004  -0.00041  -0.00037   1.86004
    A8        1.97103  -0.00020   0.00091  -0.00146  -0.00055   1.97048
    A9        1.94972   0.00034  -0.00079   0.00275   0.00196   1.95168
   A10        1.75368   0.00050  -0.00133   0.00178   0.00044   1.75412
   A11        2.03323   0.00011  -0.00000   0.00067   0.00066   2.03390
   A12        1.87004  -0.00007   0.00125  -0.00221  -0.00096   1.86908
   A13        1.96891   0.00004   0.00039   0.00053   0.00092   1.96983
   A14        1.92845  -0.00017  -0.00058  -0.00100  -0.00158   1.92687
   A15        1.93452   0.00003  -0.00029   0.00072   0.00044   1.93495
   A16        1.98475  -0.00013   0.00053  -0.00083  -0.00029   1.98445
   A17        1.92610   0.00027  -0.00194   0.00228   0.00035   1.92645
   A18        2.20999   0.00004  -0.00031   0.00057   0.00026   2.21026
   A19        2.00743  -0.00009   0.00031  -0.00055  -0.00024   2.00720
   A20        2.13941  -0.00009  -0.00010  -0.00007  -0.00017   2.13924
   A21        2.10945  -0.00005  -0.00024   0.00016  -0.00009   2.10936
    D4       -3.08335  -0.00048   0.00218   0.00151   0.00369  -3.07966
    D5        3.11417  -0.00004  -0.00014   0.00038   0.00024   3.11441
    D6       -3.18469  -0.00018  -0.00318  -0.00117  -0.00435  -3.18904
    D7        3.41914   0.00137   0.01170   0.00739   0.01909   3.43822
    D8       -2.06257   0.00028  -0.00098   0.00245   0.00147  -2.06111
    D9        2.09161  -0.00006  -0.00100   0.00057  -0.00043   2.09118
   D10        2.58229   0.00073  -0.00883  -0.00218  -0.01101   2.57128
   D11       -2.23523  -0.00019   0.00190  -0.00266  -0.00075  -2.23599
   D12        1.95163  -0.00001   0.00119  -0.00097   0.00022   1.95185
   D13        0.13191   0.00006   0.00123   0.00140   0.00263   0.13454
   D14       -2.10453  -0.00002   0.00013   0.00063   0.00076  -2.10377
   D15        2.12886   0.00017   0.00168   0.00065   0.00232   2.13119
   D16        2.68765  -0.00026   0.00390  -0.00779  -0.00389   2.68376
   D17        2.14200  -0.00005  -0.00123   0.00110  -0.00014   2.14187
   D18        2.16609  -0.00005  -0.00085   0.00216   0.00131   2.16740
   D19        3.10122  -0.00019  -0.00039  -0.00109  -0.00148   3.09974
   D20       -0.01704   0.00006  -0.00004   0.00068   0.00064  -0.01640
   D21        3.12853  -0.00006  -0.00095  -0.00079  -0.00174   3.12679
         Item               Value     Threshold  Converged?
 Maximum Force            0.001365     0.000450     NO 
 RMS     Force            0.000268     0.000300     YES
 Maximum Displacement     0.019088     0.001800     NO 
 RMS     Displacement     0.003186     0.001200     NO 
 Predicted change in Energy=-9.857942D-06
 GradGradGradGradGradGradGradGradGradGradGradGradGradGradGradGradGradGrad

 ---------------------------------------------------------------------------------------------------
                            Z-MATRIX (ANGSTROMS AND DEGREES)
   CD    Cent   Atom    N1       Length/X        N2       Alpha/Y        N3        Beta/Z          J
 ---------------------------------------------------------------------------------------------------
      1      1  C 
      2      2  C        1   1.328438(     1)
      3      3  C        1   1.511215(     2)      2  126.648(    21)
      4      4  C        1   1.521601(     3)      2  127.695(    22)      3 -176.451(    40)      0
      5      5  H        2   1.085046(     4)      1  118.448(    23)      3  178.442(    41)      0
      6      6  C        2   1.496802(     5)      1  126.364(    24)      5 -182.719(    42)      0
      7      7  O        3   1.439403(     6)      1  106.572(    25)      2  196.996(    43)      0
      8      8  H        3   1.094569(     7)      1  112.900(    26)      7 -118.093(    44)      0
      9      9  H        3   1.096581(     8)      1  111.823(    27)      7  119.816(    45)      0
     10     10  C        4   1.528146(     9)      1  100.504(    28)      2  147.323(    46)      0
     11     11  C        4   1.497504(    10)      1  116.534(    29)     10 -128.113(    47)      0
     12     12  H        4   1.100198(    11)      1  107.090(    30)     10  111.833(    48)      0
     13     13  H        6   1.091107(    12)      2  112.863(    31)      1    7.709(    49)      0
     14     14  H        6   1.093655(    13)      2  110.401(    32)     13 -120.537(    50)      0
     15     15  H        6   1.093353(    14)      2  110.865(    33)     13  122.108(    51)      0
     16     16  H       10   1.091441(    15)      4  113.701(    34)      1  153.768(    52)      0
     17     17  H       10   1.099679(    16)      4  110.377(    35)     16  122.720(    53)      0
     18     18  C       11   1.327756(    17)      4  126.638(    36)      1  124.183(    54)      0
     19     19  H       11   1.085405(    18)      4  115.004(    37)     18  177.602(    55)      0
     20     20  H       18   1.084408(    19)     11  122.570(    38)      4   -0.940(    56)      0
     21     21  H       18   1.082252(    20)     11  120.857(    39)     20  179.152(    57)      0
 ---------------------------------------------------------------------------------------------------
                         Z-Matrix orientation:                         
 ---------------------------------------------------------------------
 Center     Atomic      Atomic             Coordinates (Angstroms)
 Number     Number       Type             X           Y           Z
 ---------------------------------------------------------------------
      1          6           0        0.000000    0.000000    0.000000
      2          6           0        0.000000    0.000000    1.328438
      3          6           0        1.212479    0.000000   -0.902034
      4          6           0       -1.201698    0.074524   -0.930396
      5          1           0       -0.953676    0.025934    1.845310
      6          6           0        1.201970   -0.089878    2.215910
      7          8           0        0.754356    0.403262   -2.205639
      8          1           0        1.670042   -0.989449   -1.000561
      9          1           0        1.982568    0.696719   -0.549848
     10          6           0       -0.599644    0.849962   -2.101489
     11          6           0       -2.474852    0.595170   -0.338346
     12          1           0       -1.400236   -0.947986   -1.284646
     13          1           0        2.141523   -0.024902    1.664972
     14          1           0        1.202522   -1.037317    2.762207
     15          1           0        1.186393    0.698210    2.973600
     16          1           0       -1.089804    0.652767   -3.056529
     17          1           0       -0.630834    1.930848   -1.901472
     18          6           0       -3.194285    1.619220   -0.781824
     19          1           0       -2.844259    0.038592    0.517144
     20          1           0       -2.902799    2.206966   -1.645266
     21          1           0       -4.119947    1.899054   -0.295910
 ---------------------------------------------------------------------
                    Distance matrix (angstroms):
                    1          2          3          4          5
     1  C    0.000000
     2  C    1.328438   0.000000
     3  C    1.511215   2.538723   0.000000
     4  C    1.521601   2.559680   2.415493   0.000000
     5  H    2.077339   1.085046   3.498685   2.787188   0.000000
     6  C    2.522512   1.496802   3.119257   3.962813   2.190334
     7  O    2.365696   3.636121   1.439403   2.358064   4.412475
     8  H    2.183843   3.031878   1.094569   3.063308   4.001734
     9  H    2.172170   2.818502   1.096581   3.266725   3.848150
    10  C    2.344838   3.584188   2.333434   1.528146   4.047416
    11  C    2.567801   3.042580   3.777351   1.497504   2.721463
    12  H    2.123594   3.112482   2.805591   1.100198   3.308255
    13  H    2.712724   2.167948   2.730067   4.233550   3.100865
    14  H    3.186201   2.139575   3.808253   4.544423   2.573012
    15  H    3.276785   2.145130   3.938111   4.618782   2.510953
    16  H    3.310007   4.565272   3.220008   2.206202   4.943629
    17  H    2.782395   3.815553   2.850412   2.171362   4.215601
    18  C    3.665594   4.156746   4.696370   2.525581   3.802726
    19  H    2.891148   2.957955   4.297985   2.189673   2.310517
    20  H    4.000480   4.705301   4.728489   2.819945   4.554130
    21  H    4.546200   4.818597   5.692851   3.499665   4.256604
                    6          7          8          9         10
     6  C    0.000000
     7  O    4.471425   0.000000
     8  H    3.372536   2.056778   0.000000
     9  H    2.979511   2.082369   1.773126   0.000000
    10  C    4.771692   1.429582   3.122011   3.016436   0.000000
    11  C    4.529077   3.735158   4.486613   4.463590   2.586503
    12  H    4.445415   2.704878   3.083671   3.832537   2.130914
    13  H    1.091107   4.133906   2.873623   2.334830   4.739790
    14  H    1.093655   5.191880   3.792003   3.819040   5.519526
    15  H    1.093353   5.205590   4.344659   3.612282   5.382330
    16  H    5.796754   2.046263   3.813217   3.965456   1.091441
    17  H    4.939164   2.084415   3.825415   3.190584   1.099679
    18  C    5.588782   4.370077   5.524009   5.263518   3.010886
    19  H    4.390248   4.527313   4.872290   4.986969   3.543142
    20  H    6.085499   4.116085   5.616368   5.229493   2.711849
    21  H    6.211915   5.444565   6.508760   6.225012   4.093072
                   11         12         13         14         15
    11  C    0.000000
    12  H    2.105140   0.000000
    13  H    5.070374   4.700679   0.000000
    14  H    5.079520   4.812416   1.763699   0.000000
    15  H    4.938048   5.247215   1.774169   1.748429   0.000000
    16  H    3.051261   2.407975   5.761360   6.478335   6.445587
    17  H    2.761848   3.043047   4.922442   5.824182   5.346778
    18  C    1.327756   3.172064   6.095966   6.240935   5.843099
    19  H    1.085405   2.510973   5.116597   4.751245   4.766070
    20  H    2.118741   3.513042   6.433047   6.841408   6.350729
    21  H    2.099584   4.059565   6.837593   6.804633   6.347359
                   16         17         18         19         20
    16  H    0.000000
    17  H    1.782779   0.000000
    18  C    3.246098   2.814606   0.000000
    19  H    4.028208   3.785444   2.075626   0.000000
    20  H    2.773833   2.302979   1.084408   3.062889   0.000000
    21  H    4.284392   3.840931   1.082252   2.397865   1.843100
                   21
    21  H    0.000000
 Symmetry turned off by external request.
 Stoichiometry    C8H12O
 Framework group  C1[X(C8H12O)]
 Deg. of freedom    57
 Full point group                 C1      NOp   1
 Rotational constants (GHZ):           2.1277651           1.3454181           0.8785980
 Standard basis: def2TZVP (5D, 7F)
 The following finite field(s) will be applied:
 An electric field of              0.0043  0.0063 -0.0065
   351 basis functions,   555 primitive gaussians,   396 cartesian basis functions
    34 alpha electrons       34 beta electrons
       nuclear repulsion energy       444.5455565586 Hartrees.
 NAtoms=   21 NActive=   21 NUniq=   21 SFac= 1.00D+00 NAtFMM=   60 NAOKFM=F Big=F
 Integral buffers will be    131072 words long.
 Raffenetti 2 integral format.
 Two-electron integral symmetry is turned off.
 One-electron integrals computed using PRISM.
   1 Symmetry operations used in ECPInt.
 ECPInt:  NShTT=   10878 NPrTT=   32112 LenC2=   10565 LenP2D=   24720.
 LDataN:  DoStor=T MaxTD1= 6 Len=  172
 NBasis=   351 RedAO= T EigKep=  7.36D-05  NBF=   351
 NBsUse=   351 1.00D-06 EigRej= -1.00D+00 NBFU=   351
 The nuclear repulsion energy is now       444.9464954420 hartrees.
 Initial guess from the checkpoint file:  "checkpoint.chk"
 B after Tr=    -0.000620    0.003760    0.001711
         Rot=    0.999994   -0.003062    0.000295   -0.001461 Ang=  -0.39 deg.
 Requested convergence on RMS density matrix=1.00D-08 within 128 cycles.
 Requested convergence on MAX density matrix=1.00D-06.
 Requested convergence on             energy=1.00D-06.
 No special actions if energy rises.
 SCF Done:  E(RB3LYP) =  -387.400786947     A.U. after    8 cycles
            NFock=  8  Conv=0.93D-08     -V/T= 2.0053
   1 Symmetry operations used in ECPInt.
 ECPInt:  NShTT=   10878 NPrTT=   32112 LenC2=   10565 LenP2D=   24720.
 LDataN:  DoStor=T MaxTD1= 7 Len=  274
 Calling FoFJK, ICntrl=      2127 FMM=F ISym2X=0 I1Cent= 0 IOpClX= 0 NMat=1 NMatS=1 NMatT=0.
 -------------------------------------------------------------------
 Center     Atomic                   Forces (Hartrees/Bohr)
 Number     Number              X              Y              Z
 -------------------------------------------------------------------
      1        6           0.000950511    0.001109574   -0.000175490
      2        6          -0.000760670   -0.001392149    0.000034310
      3        6           0.000031700    0.000342447    0.000326530
      4        6          -0.000025883    0.000078624    0.000086272
      5        1          -0.000011395    0.000021611   -0.000003741
      6        6          -0.000018734    0.000024004    0.000047735
      7        8          -0.000103545    0.000495258   -0.000021883
      8        1          -0.000084086   -0.000129902    0.000029212
      9        1          -0.000042069   -0.000127391   -0.000149164
     10        6           0.000073627   -0.000143480    0.000010433
     11        6          -0.000020496    0.000046106   -0.000008985
     12        1          -0.000005354   -0.000048938   -0.000036983
     13        1          -0.000006313    0.000006831   -0.000003160
     14        1          -0.000006406   -0.000032379   -0.000017430
     15        1          -0.000011485   -0.000016293   -0.000020359
     16        1          -0.000078873   -0.000084846    0.000023469
     17        1           0.000079089   -0.000064996   -0.000108057
     18        6          -0.000003685   -0.000009551    0.000002663
     19        1           0.000019187   -0.000049351   -0.000016480
     20        1           0.000020519   -0.000010275    0.000001707
     21        1           0.000004361   -0.000014906   -0.000000597
 -------------------------------------------------------------------
 Cartesian Forces:  Max     0.001392149 RMS     0.000290668
 -----------------------------------------------------------------------------------------------
                       Internal Coordinate Forces (Hartree/Bohr or radian)
  Cent   Atom   N1       Length/X         N2         Alpha/Y        N3         Beta/Z          J
 -----------------------------------------------------------------------------------------------
      1  C 
      2  C        1   0.000037(     1)
      3  C        1  -0.000269(     2)      2   0.000330(    21)
      4  C        1  -0.000036(     3)      2   0.000266(    22)      3  -0.000262(    40)     0
      5  H        2   0.000009(     4)      1  -0.000018(    23)      3  -0.000067(    41)     0
      6  C        2  -0.000029(     5)      1   0.000092(    24)      5  -0.000029(    42)     0
      7  O        3   0.000192(     6)      1  -0.000354(    25)      2   0.001260(    43)     0
      8  H        3   0.000080(     7)      1  -0.000260(    26)      7   0.000098(    44)     0
      9  H        3  -0.000158(     8)      1   0.000255(    27)      7  -0.000012(    45)     0
     10  C        4  -0.000063(     9)      1   0.000168(    28)      2   0.001031(    46)     0
     11  C        4  -0.000039(    10)      1   0.000059(    29)     10  -0.000156(    47)     0
     12  H        4   0.000058(    11)      1   0.000016(    30)     10  -0.000036(    48)     0
     13  H        6  -0.000003(    12)      2  -0.000013(    31)      1   0.000064(    49)     0
     14  H        6   0.000019(    13)      2  -0.000045(    32)     13   0.000045(    50)     0
     15  H        6  -0.000026(    14)      2  -0.000025(    33)     13   0.000006(    51)     0
     16  H       10   0.000030(    15)      4  -0.000235(    34)      1   0.000037(    52)     0
     17  H       10  -0.000086(    16)      4   0.000246(    35)     16   0.000056(    53)     0
     18  C       11  -0.000040(    17)      4  -0.000039(    36)      1  -0.000049(    54)     0
     19  H       11   0.000006(    18)      4  -0.000096(    37)     18  -0.000054(    55)     0
     20  H       18  -0.000001(    19)     11  -0.000046(    38)      4  -0.000022(    56)     0
     21  H       18  -0.000008(    20)     11  -0.000023(    39)     20  -0.000013(    57)     0
 -----------------------------------------------------------------------------------------------
 Internal  Forces:  Max     0.001260023 RMS     0.000249572

 GradGradGradGradGradGradGradGradGradGradGradGradGradGradGradGradGradGrad
 Berny optimization.
 Search for a local minimum.
 Step number   3 out of a maximum of   67
 All quantities printed in internal units (Hartrees-Bohrs-Radians)
 Update second derivatives using D2CorN and points    1    2    3
 DE= -1.90D-05 DEPred=-9.86D-06 R= 1.92D+00
 TightC=F SS=  1.41D+00  RLast= 2.41D-02 DXNew= 1.6818D-01 7.2167D-02
 Trust test= 1.92D+00 RLast= 2.41D-02 DXMaxT set to 1.00D-01
 ITU=  1  1  0
     Eigenvalues ---    0.00450   0.03050   0.03605   0.03816   0.05564
     Eigenvalues ---    0.06200   0.07949   0.09435   0.11027   0.12437
     Eigenvalues ---    0.13796   0.14918   0.15345   0.15621   0.16441
     Eigenvalues ---    0.19258   0.20751   0.21309   0.21921   0.22374
     Eigenvalues ---    0.23873   0.23969   0.24789   0.28356   0.28973
     Eigenvalues ---    0.30089   0.31564   0.32647   0.32655   0.33193
     Eigenvalues ---    0.33650   0.33792   0.34086   0.34293   0.34382
     Eigenvalues ---    0.34418   0.34668   0.34719   0.34743   0.35333
     Eigenvalues ---    0.35385   0.35526   0.35612   0.35721   0.38189
     Eigenvalues ---    0.40181   0.41170   0.43651   0.47450   0.53325
     Eigenvalues ---    0.54403   0.54931   0.59911   0.60060   1.32681
     Eigenvalues ---    1.57005  20.48208
 RFO step:  Lambda=-9.83125681D-06 EMin= 4.50117013D-03
 Quartic linear search produced a step of  1.62548.
 Variable       Old X    -DE/DX   Delta X   Delta X   Delta X     New X
                                 (Linear)    (Quad)   (Total)
    R2        2.51038   0.00004   0.00012   0.00013   0.00025   2.51063
    R3        2.85578  -0.00027  -0.00172  -0.00098  -0.00270   2.85308
    R4        2.87541  -0.00004  -0.00098  -0.00027  -0.00125   2.87415
    R5        2.05044   0.00001   0.00026  -0.00006   0.00019   2.05063
    R6        2.82855  -0.00003  -0.00029  -0.00015  -0.00044   2.82810
    R7        2.72008   0.00019   0.00412  -0.00019   0.00393   2.72400
    R8        2.06844   0.00008   0.00019   0.00058   0.00077   2.06920
    R9        2.07224  -0.00016  -0.00112  -0.00073  -0.00185   2.07039
   R10        2.88778  -0.00006  -0.00051  -0.00007  -0.00058   2.88720
   R11        2.82987  -0.00004   0.00057  -0.00066  -0.00009   2.82978
   R12        2.07907   0.00006  -0.00007   0.00049   0.00042   2.07949
   R13        2.06189  -0.00000  -0.00034   0.00016  -0.00018   2.06171
   R14        2.06671   0.00002   0.00016   0.00008   0.00024   2.06695
   R15        2.06614  -0.00003  -0.00002  -0.00021  -0.00022   2.06592
   R16        2.06252   0.00003   0.00037   0.00008   0.00045   2.06298
   R17        2.07809  -0.00009  -0.00020  -0.00056  -0.00076   2.07733
   R18        2.50909  -0.00004   0.00016  -0.00027  -0.00012   2.50898
   R19        2.05112   0.00001   0.00004   0.00002   0.00006   2.05118
   R20        2.04923  -0.00000  -0.00009   0.00006  -0.00003   2.04920
   R21        2.04516  -0.00001  -0.00006   0.00000  -0.00006   2.04510
    A3        2.21042   0.00033   0.00052   0.00112   0.00164   2.21206
    A4        2.22870   0.00027   0.00046  -0.00043   0.00003   2.22873
    A5        2.06731  -0.00002  -0.00150   0.00013  -0.00137   2.06593
    A6        2.20547   0.00009   0.00260  -0.00042   0.00218   2.20765
    A7        1.86004  -0.00035  -0.00060  -0.00029  -0.00089   1.85915
    A8        1.97048  -0.00026  -0.00090  -0.00160  -0.00250   1.96798
    A9        1.95168   0.00025   0.00319   0.00088   0.00406   1.95574
   A10        1.75412   0.00017   0.00072  -0.00100  -0.00028   1.75384
   A11        2.03390   0.00006   0.00108   0.00025   0.00133   2.03523
   A12        1.86908   0.00002  -0.00155   0.00091  -0.00065   1.86843
   A13        1.96983  -0.00001   0.00149  -0.00075   0.00074   1.97057
   A14        1.92687  -0.00004  -0.00258   0.00097  -0.00161   1.92526
   A15        1.93495  -0.00002   0.00071  -0.00058   0.00012   1.93508
   A16        1.98445  -0.00023  -0.00048  -0.00139  -0.00187   1.98259
   A17        1.92645   0.00025   0.00056   0.00030   0.00087   1.92731
   A18        2.21026  -0.00004   0.00043  -0.00031   0.00012   2.21038
   A19        2.00720  -0.00010  -0.00038  -0.00007  -0.00045   2.00675
   A20        2.13924  -0.00005  -0.00028   0.00015  -0.00012   2.13912
   A21        2.10936  -0.00002  -0.00014  -0.00004  -0.00018   2.10918
    D4       -3.07966  -0.00026   0.00600   0.00008   0.00608  -3.07358
    D5        3.11441  -0.00007   0.00038  -0.00197  -0.00159   3.11282
    D6       -3.18904  -0.00003  -0.00708   0.00146  -0.00562  -3.19466
    D7        3.43822   0.00126   0.03103   0.01136   0.04239   3.48061
    D8       -2.06111   0.00010   0.00238  -0.00087   0.00151  -2.05959
    D9        2.09118  -0.00001  -0.00070  -0.00023  -0.00093   2.09025
   D10        2.57128   0.00103  -0.01790  -0.00694  -0.02484   2.54644
   D11       -2.23599  -0.00016  -0.00122   0.00041  -0.00081  -2.23680
   D12        1.95185  -0.00004   0.00036  -0.00021   0.00015   1.95199
   D13        0.13454   0.00006   0.00427   0.00211   0.00638   0.14092
   D14       -2.10377   0.00005   0.00124  -0.00042   0.00082  -2.10295
   D15        2.13119   0.00001   0.00378  -0.00175   0.00203   2.13322
   D16        2.68376   0.00004  -0.00632   0.00280  -0.00353   2.68024
   D17        2.14187   0.00006  -0.00022  -0.00073  -0.00096   2.14091
   D18        2.16740  -0.00005   0.00213  -0.00317  -0.00104   2.16636
   D19        3.09974  -0.00005  -0.00241   0.00147  -0.00094   3.09881
   D20       -0.01640  -0.00002   0.00104  -0.00216  -0.00112  -0.01752
   D21        3.12679  -0.00001  -0.00283   0.00241  -0.00043   3.12636
         Item               Value     Threshold  Converged?
 Maximum Force            0.001260     0.000450     NO 
 RMS     Force            0.000250     0.000300     YES
 Maximum Displacement     0.042386     0.001800     NO 
 RMS     Displacement     0.006784     0.001200     NO 
 Predicted change in Energy=-1.625923D-05
 GradGradGradGradGradGradGradGradGradGradGradGradGradGradGradGradGradGrad

 ---------------------------------------------------------------------------------------------------
                            Z-MATRIX (ANGSTROMS AND DEGREES)
   CD    Cent   Atom    N1       Length/X        N2       Alpha/Y        N3        Beta/Z          J
 ---------------------------------------------------------------------------------------------------
      1      1  C 
      2      2  C        1   1.328569(     1)
      3      3  C        1   1.509785(     2)      2  126.742(    21)
      4      4  C        1   1.520937(     3)      2  127.697(    22)      3 -176.103(    40)      0
      5      5  H        2   1.085149(     4)      1  118.369(    23)      3  178.351(    41)      0
      6      6  C        2   1.496567(     5)      1  126.489(    24)      5 -183.041(    42)      0
      7      7  O        3   1.441481(     6)      1  106.521(    25)      2  199.424(    43)      0
      8      8  H        3   1.094976(     7)      1  112.757(    26)      7 -118.006(    44)      0
      9      9  H        3   1.095601(     8)      1  112.055(    27)      7  119.762(    45)      0
     10     10  C        4   1.527841(     9)      1  100.488(    28)      2  145.900(    46)      0
     11     11  C        4   1.497456(    10)      1  116.610(    29)     10 -128.159(    47)      0
     12     12  H        4   1.100421(    11)      1  107.053(    30)     10  111.841(    48)      0
     13     13  H        6   1.091012(    12)      2  112.905(    31)      1    8.074(    49)      0
     14     14  H        6   1.093782(    13)      2  110.309(    32)     13 -120.490(    50)      0
     15     15  H        6   1.093235(    14)      2  110.872(    33)     13  122.224(    51)      0
     16     16  H       10   1.091680(    15)      4  113.594(    34)      1  153.566(    52)      0
     17     17  H       10   1.099277(    16)      4  110.427(    35)     16  122.665(    53)      0
     18     18  C       11   1.327694(    17)      4  126.645(    36)      1  124.123(    54)      0
     19     19  H       11   1.085437(    18)      4  114.978(    37)     18  177.549(    55)      0
     20     20  H       18   1.084392(    19)     11  122.563(    38)      4   -1.004(    56)      0
     21     21  H       18   1.082221(    20)     11  120.847(    39)     20  179.127(    57)      0
 ---------------------------------------------------------------------------------------------------
                         Z-Matrix orientation:                         
 ---------------------------------------------------------------------
 Center     Atomic      Atomic             Coordinates (Angstroms)
 Number     Number       Type             X           Y           Z
 ---------------------------------------------------------------------
      1          6           0        0.000000    0.000000    0.000000
      2          6           0        0.000000    0.000000    1.328569
      3          6           0        1.209850    0.000000   -0.903169
      4          6           0       -1.200670    0.081787   -0.930028
      5          1           0       -0.954432    0.027470    1.844179
      6          6           0        1.199168   -0.098366    2.218533
      7          8           0        0.758679    0.459589   -2.192777
      8          1           0        1.639399   -0.998432   -1.035809
      9          1           0        1.999259    0.663678   -0.533430
     10          6           0       -0.604039    0.885353   -2.084416
     11          6           0       -2.480383    0.577866   -0.331181
     12          1           0       -1.389019   -0.935815   -1.304109
     13          1           0        2.140687   -0.033970    1.671081
     14          1           0        1.194000   -1.049401    2.758778
     15          1           0        1.183391    0.684629    2.981313
     16          1           0       -1.090114    0.698633   -3.043912
     17          1           0       -0.648994    1.961798   -1.866121
     18          6           0       -3.208380    1.603970   -0.755328
     19          1           0       -2.846988   -0.000736    0.510837
     20          1           0       -2.919555    2.212916   -1.604841
     21          1           0       -4.138696    1.863700   -0.267216
 ---------------------------------------------------------------------
                    Distance matrix (angstroms):
                    1          2          3          4          5
     1  C    0.000000
     2  C    1.328569   0.000000
     3  C    1.509785   2.538580   0.000000
     4  C    1.520937   2.559210   2.412056   0.000000
     5  H    2.076702   1.085149   3.497541   2.785643   0.000000
     6  C    2.523800   1.496567   3.123269   3.962967   2.189513
     7  O    2.365394   3.631349   1.441481   2.361423   4.406642
     8  H    2.181145   3.045452   1.094976   3.040404   4.009335
     9  H    2.173028   2.811502   1.095601   3.276497   3.844746
    10  C    2.343822   3.577315   2.338672   1.527841   4.036409
    11  C    2.568250   3.039901   3.778745   1.497456   2.713605
    12  H    2.122693   3.120275   2.791168   1.100421   3.320919
    13  H    2.715918   2.168181   2.737586   4.236017   3.100564
    14  H    3.183981   2.138311   3.809376   4.541070   2.571362
    15  H    3.279842   2.144923   3.944442   4.620147   2.509027
    16  H    3.307845   4.560156   3.218804   2.204819   4.935819
    17  H    2.784287   3.804719   2.869011   2.171419   4.195384
    18  C    3.665644   4.148379   4.702694   2.525561   3.784584
    19  H    2.892455   2.962099   4.296201   2.189352   2.315247
    20  H    3.999539   4.693154   4.737228   2.819867   4.531404
    21  H    4.546822   4.811311   5.699540   3.499504   4.239018
                    6          7          8          9         10
     6  C    0.000000
     7  O    4.468221   0.000000
     8  H    3.405093   2.059143   0.000000
     9  H    2.965494   2.081856   1.773271   0.000000
    10  C    4.768084   1.431788   3.111468   3.038397   0.000000
    11  C    4.527408   3.737786   4.466969   4.485026   2.586319
    12  H    4.450734   2.710994   3.040925   3.825278   2.131132
    13  H    1.091012   4.133153   2.916972   2.316590   4.741565
    14  H    1.093782   5.194656   3.820977   3.797593   5.516588
    15  H    1.093235   5.196368   4.379258   3.608255   5.375576
    16  H    5.793905   2.049294   3.789822   3.980950   1.091680
    17  H    4.934001   2.084437   3.832639   3.236421   1.099277
    18  C    5.582855   4.371890   5.509277   5.296498   3.010893
    19  H    4.392850   4.530150   4.849245   5.001805   3.542783
    20  H    6.076519   4.116944   5.605410   5.267142   2.711832
    21  H    6.206564   5.446430   6.493760   6.259825   4.093065
                   11         12         13         14         15
    11  C    0.000000
    12  H    2.104493   0.000000
    13  H    5.073232   4.703606   0.000000
    14  H    5.069214   4.815801   1.763632   0.000000
    15  H    4.940370   5.254329   1.774685   1.748283   0.000000
    16  H    3.050629   2.405759   5.762460   6.476419   6.439904
    17  H    2.761393   3.042968   4.927191   5.818387   5.337267
    18  C    1.327694   3.172025   6.097773   6.226578   5.839121
    19  H    1.085437   2.508799   5.120955   4.741574   4.776708
    20  H    2.118601   3.513899   6.433212   6.826801   6.340555
    21  H    2.099397   4.058713   6.840234   6.788258   6.345689
                   16         17         18         19         20
    16  H    0.000000
    17  H    1.782516   0.000000
    18  C    3.247199   2.812892   0.000000
    19  H    4.026408   3.785848   2.075779   0.000000
    20  H    2.776839   2.299299   1.084392   3.062942   0.000000
    21  H    4.285006   3.839810   1.082221   2.397915   1.843230
                   21
    21  H    0.000000
 Symmetry turned off by external request.
 Stoichiometry    C8H12O
 Framework group  C1[X(C8H12O)]
 Deg. of freedom    57
 Full point group                 C1      NOp   1
[...]
 588,0.00143968,-0.00095280,0.00357080,-0.00149102,0.00054992,-0.003645
 39,-0.00435477,0.54424168,-0.01022120,0.02050096,-0.03863983,-0.002315
 79,0.00086860,-0.00027048,-0.03434501,0.01102368,-0.00425275,0.0168523
 2,0.04363595,-0.12275366,0.00012101,0.00021145,0.00014789,-0.00031882,
 -0.00146664,-0.00036558,0.03599185,-0.00400471,-0.08784173,-0.00101921
 ,0.00054157,-0.00308820,-0.00137967,0.00150464,-0.00350190,0.08711325,
 0.02458995,0.57936874,-0.02883135,0.01031260,0.00302479,0.00146387,0.0
 0010418,0.00112382,-0.00174116,-0.00000726,-0.00044969,-0.16763456,0.0
 3390851,0.05260614,0.00000490,0.00020301,0.00038187,-0.00057794,-0.000
 69935,0.00104707,0.00056721,0.00114900,-0.00039281,-0.00021965,0.00007
 911,0.00023350,-0.00007185,0.00010150,0.00014659,-0.01164377,-0.001533
 19,0.00713651,0.51993364,0.00574484,-0.00321528,0.00060779,-0.00030199
 ,0.00035738,-0.00063882,-0.00021119,-0.00010311,0.00195644,0.03615770,
 -0.09368428,-0.00628056,-0.00004493,0.00011122,0.00036798,-0.00015441,
 0.00009605,0.00004356,-0.00680225,-0.00082106,0.00326651,-0.00046238,0
 .00008364,0.00010041,-0.00012500,0.00015207,-0.00019705,-0.01283560,0.
 01022602,0.00160072,-0.22176973,0.59680911,-0.01557008,0.00791994,0.01
 610778,-0.00105316,0.00023228,-0.00012881,-0.00452395,0.00020867,-0.00
 589800,0.04964867,-0.00585329,-0.10996106,-0.00114660,0.00024893,-0.00
 091961,0.00027880,-0.00024197,-0.00041039,0.00547456,0.00165430,-0.002
 26283,0.00002896,-0.00002424,0.00021246,-0.00089876,-0.00020099,0.0011
 6890,0.02020479,-0.01050085,-0.00886488,-0.07612963,-0.25016053,0.4599
 1737,-0.00618903,-0.02177973,-0.01362654,-0.00115830,-0.00040046,0.000
 91967,0.00022565,0.00054222,-0.00021515,-0.05068957,-0.03747075,-0.009
 46261,-0.00006515,-0.00089346,-0.00004365,0.00019457,0.00230981,-0.000
 63355,0.00081160,0.00058727,0.00068732,-0.00044088,-0.00001642,0.00013
 477,0.00025862,0.00029449,-0.00022812,-0.00204277,-0.01096837,-0.00225
 088,0.00141717,0.02924831,0.01008242,0.06113620,-0.00227947,0.00355784
 ,-0.00250825,0.00004337,0.00061781,0.00142012,-0.00055952,-0.00008735,
 -0.00040790,-0.03776586,-0.24870866,-0.07285609,0.00006191,0.00017489,
 0.00002501,-0.00010861,-0.00044799,-0.00017071,0.00016650,0.00196882,-
 0.00004457,-0.00018636,-0.00002837,-0.00007460,-0.00016584,-0.00004408
 ,0.00009299,-0.00310248,-0.02103723,-0.00360266,0.00370931,-0.01338601
 ,-0.00481473,0.03988750,0.27538531,-0.00925538,-0.01954902,-0.01438081
 ,-0.00183003,-0.00017864,0.00123839,0.00041312,0.00030561,0.00018632,-
 0.00918187,-0.07964030,-0.06988245,-0.00009417,-0.00135479,-0.00013951
 ,0.00016009,0.00249492,-0.00059100,-0.00153273,-0.00149254,0.00060876,
 -0.00029389,-0.00001787,0.00036228,0.00003189,0.00022547,-0.00014984,0
 .00553393,0.02774126,0.00535144,-0.00048864,-0.01340898,-0.00350510,0.
 01333954,0.08123004,0.08266266,0.00109169,0.00063990,0.00170860,-0.023
 81695,-0.00167703,0.01470396,-0.00050555,-0.00087834,-0.00054493,0.000
 11723,0.00003143,-0.00020468,-0.00251470,-0.00017892,-0.00390337,-0.23
 636217,-0.01625159,0.11207308,0.00113682,0.00000385,0.00041067,0.00019
 166,-0.00015299,-0.00043372,0.00093270,0.00063947,-0.00007585,-0.00059
 137,0.00011047,0.00030789,-0.00009148,-0.00008326,0.00005090,-0.000113
 23,0.00000759,-0.00008389,0.26044029,-0.00022260,0.00004269,-0.0002796
 6,0.00281185,-0.00101619,-0.00083648,0.00011954,0.00005658,0.00027467,
 0.00005755,-0.00016449,0.00000699,0.00052266,0.00142155,0.00043282,-0.
 01657424,-0.04820119,0.00792504,-0.00001766,-0.00012504,-0.00014295,-0
 .00003730,-0.00012393,-0.00047192,-0.00010668,0.00006213,0.00066562,0.
 00000302,0.00001617,0.00006030,0.00003628,-0.00001254,-0.00001506,-0.0
 0008139,0.00000387,-0.00005878,0.01758105,0.04580445,0.00074079,-0.000
 36132,0.00108666,-0.01838564,-0.00168466,0.01307892,-0.00020240,-0.000
 23771,-0.00131063,0.00004983,0.00011577,0.00014314,-0.00341004,0.00099
 817,-0.00187940,0.11467342,0.00826227,-0.11746513,-0.00017462,-0.00003
 528,0.00035226,0.00021319,0.00021197,-0.00020374,0.00006447,0.00015817
 ,-0.00104870,-0.00011877,0.00006274,-0.00004415,-0.00015505,-0.0000067
 6,0.00005446,0.00003100,0.00000798,0.00003156,-0.12437886,-0.01078298,
 0.12680404,-0.00269845,0.00059090,0.00041410,-0.00017305,0.02407085,-0
 .01617625,-0.00011312,0.00068137,0.00014701,-0.00015515,-0.00246110,-0
 .00047620,0.00037253,-0.00074050,0.00068329,-0.04605901,0.00027245,0.0
 0117752,0.00036547,0.00003663,0.00020681,0.00008554,-0.00013948,-0.000
 04554,0.00040035,0.00026187,-0.00053177,-0.00001545,-0.00004119,0.0003
 7278,0.00039706,-0.00000730,-0.00018076,-0.00059530,0.00010403,-0.0006
 2462,-0.00040983,-0.02500628,0.01313003,0.04901702,0.00027548,0.000076
 64,-0.00184714,0.00199350,0.00190010,0.00149608,-0.00037789,0.00010896
 ,0.00015718,0.00004324,-0.00018224,0.00009375,0.00042314,0.00029107,0.
 00031014,-0.00212399,-0.24282870,0.11088084,-0.00000464,-0.00004027,-0
 .00004604,0.00008671,-0.00010966,0.00002737,0.00006164,-0.00002844,0.0
 0005430,0.00004673,-0.00003858,0.00004201,-0.00002364,-0.00002173,0.00
 001683,-0.00008431,-0.00008088,-0.00006752,-0.00060039,-0.00046536,-0.
 00032977,0.00081424,0.26363154,-0.00214029,0.00029066,0.00100907,-0.00
 284435,0.01680836,-0.01512686,-0.00036353,0.00099472,0.00015836,-0.000
 28578,-0.00191667,-0.00048230,-0.00002808,-0.00043120,0.00048513,0.002
 97961,0.11207561,-0.10267080,0.00001389,-0.00008397,-0.00022479,-0.000
 01808,0.00001963,-0.00010529,0.00008431,-0.00007466,0.00036966,0.00018
 164,-0.00007782,0.00017063,0.00021998,-0.00005883,-0.00001251,-0.00034
 624,0.00012484,-0.00039249,0.00042300,0.01419083,-0.00862418,0.0021916
 7,-0.12144867,0.11428265,-0.00300271,0.00043919,-0.00122839,0.00155892
 ,-0.02042908,-0.02039492,-0.00096950,-0.00108193,0.00031044,0.00049688
 ,0.00176472,-0.00066443,0.00085541,0.00023441,0.00078256,-0.04964987,0
 .00536423,0.00724955,0.00031366,0.00001535,-0.00006432,0.00019151,-0.0
 0002233,-0.00047124,0.00037828,0.00029512,0.00034973,-0.00063539,-0.00
 002025,-0.00011075,0.00023900,-0.00004633,-0.00022172,0.00007439,-0.00
 003817,0.00014786,0.00007997,0.02093039,0.01777084,-0.00025754,-0.0005
 2537,0.00000880,0.05037834,0.00020010,0.00012951,0.00068916,-0.0000210
 7,0.00407597,0.00387482,-0.00013372,-0.00006738,0.00023221,0.00010705,
 -0.00041880,0.00015276,-0.00052925,0.00032407,-0.00032931,0.00511333,-
 0.17711762,-0.13021898,-0.00001820,0.00006612,-0.00011914,-0.00000592,
 -0.00002608,-0.00004978,0.00006524,0.00000665,0.00007859,0.00005740,-0
 .00002789,0.00007718,0.00005409,-0.00001036,-0.00006584,-0.00011947,-0
 .00000376,-0.00010349,0.00078227,0.00272824,0.00363758,0.00146973,-0.0
 2220838,-0.02052364,-0.00699455,0.19255098,-0.00333298,-0.00060323,0.0
 0121426,-0.00186857,-0.01228397,-0.01841883,0.00029947,-0.00054543,-0.
 00003001,0.00028652,0.00157060,-0.00060021,-0.00000760,0.00071154,0.00
 079876,0.00860315,-0.13093493,-0.16737345,-0.00006592,0.00002576,-0.00
 002588,0.00009528,-0.00001714,0.00004313,-0.00026432,-0.00019422,-0.00
 022862,-0.00042002,-0.00014098,-0.00023486,0.00010001,-0.00007012,-0.0
 0014203,0.00019775,-0.00003206,0.00023151,0.00017518,-0.01099151,-0.01
 090266,-0.00033898,0.01063555,0.01110259,-0.00337927,0.14264114,0.1846
 7912,-0.00280326,-0.00137076,0.00258362,0.00105851,-0.00015819,0.00006
 232,-0.00447292,-0.00279952,0.00226704,0.00899389,0.00318755,0.0121296
 1,0.00001981,-0.00021590,-0.00008507,-0.00015285,0.00035392,0.00019570
 ,-0.02651441,0.00432856,-0.02965245,-0.00026221,0.00010957,-0.00041284
 ,-0.00064857,0.00050037,-0.00167644,-0.08770596,-0.02267797,-0.0902057
 5,0.00057535,-0.00037994,-0.00014883,0.00031901,0.00059275,-0.00076408
 ,0.00015526,0.00000090,0.00000984,0.00000682,-0.00000292,-0.00003934,0
 .00013616,-0.00000428,0.00004914,0.10854119,-0.00020577,-0.00083277,0.
 00221583,0.00081724,0.00009888,0.00053617,0.00243342,-0.00025594,0.001
 32196,0.00700005,0.00277396,0.01494748,-0.00004407,-0.00003502,0.00001
 657,-0.00002792,0.00014652,0.00018019,0.00710335,0.00321390,0.01169885
 ,0.00017938,-0.00012611,0.00023772,0.00034844,-0.00035408,0.00047077,-
 0.02519627,-0.06323079,-0.05195503,0.00042964,-0.00030238,0.00016842,0
 .00065850,0.00109170,-0.00015579,-0.00005063,-0.00001177,-0.00001526,-
 0.00001069,-0.00000638,0.00002445,0.00003674,-0.00001304,0.00009808,0.
 01982575,0.06378233,0.00193671,0.00268231,-0.00317095,-0.00097278,0.00
 031107,0.00013380,0.00131340,-0.00087597,0.00038656,-0.01028470,-0.005
 64668,-0.01690598,0.00002745,0.00026585,-0.00000798,0.00015370,-0.0005
 6262,-0.00037212,-0.00000148,0.00271480,0.00681639,-0.00000156,-0.0000
 0943,0.00003336,-0.00017615,0.00004030,0.00005654,-0.09621981,-0.04601
 871,-0.25119102,-0.00069723,0.00096718,-0.00026911,-0.00005500,-0.0000
 2822,0.00148103,-0.00004710,-0.00000002,0.00003286,-0.00003656,0.00001
 756,0.00003459,-0.00019186,-0.00000162,-0.00014665,0.10681961,0.048496
 39,0.26793831,-0.00027177,0.00018673,-0.00069539,0.00051783,0.00018264
 ,0.00005269,0.00097103,0.00139021,0.00451756,0.00105370,-0.01315185,-0
 .00330635,0.00002075,0.00010913,-0.00007883,-0.00005410,-0.00016148,0.
 00006310,-0.01878731,0.03828720,0.00633363,-0.00057430,0.00040792,-0.0
 0144439,-0.00033459,-0.00026591,-0.00007526,-0.04481639,-0.00275617,-0
 .00354570,0.00070831,-0.00004986,-0.00048798,-0.00050509,-0.00135525,0
 .00291473,0.00002993,0.00001183,0.00000620,0.00002625,-0.00000116,0.00
 002742,0.00000316,-0.00000035,-0.00003112,0.00280224,-0.01284923,-0.00
 234659,0.06115838,-0.00021846,0.00086030,-0.00105120,0.00012383,0.0003
 5237,0.00043649,-0.00000875,-0.00055864,-0.00204736,-0.00289326,-0.019
 34109,-0.00327013,-0.00002195,0.00003951,0.00012675,0.00000154,-0.0001
 4725,0.00008509,0.01641658,-0.00425821,-0.00125709,0.00026014,-0.00026
 353,0.00061716,0.00021910,-0.00024577,0.00054703,-0.00381103,-0.272575
 17,-0.04484146,0.00176085,-0.00007690,-0.00077066,-0.00057237,-0.00099
 089,0.00358065,-0.00004669,-0.00001830,-0.00002953,0.00003770,-0.00000
 263,0.00003556,0.00002113,0.00001021,0.00005900,-0.00151325,-0.0062447
 6,-0.00185137,-0.01004103,0.30205593,0.00109265,0.00000121,0.00166223,
 -0.00009231,-0.00022971,-0.00028556,-0.00011665,0.00023491,-0.00070472
 ,0.00088024,0.02420882,0.00501193,0.00000302,0.00000992,0.00002623,0.0
 0002521,0.00000502,0.00002824,0.00395086,-0.00064036,0.00467161,-0.000
 10575,-0.00019783,0.00015297,0.00007077,-0.00015549,0.00025362,-0.0037
 2615,-0.04765326,-0.06619863,-0.00089181,0.00021148,0.00096168,0.00134
 382,0.00288497,-0.00308703,-0.00001520,0.00000251,-0.00000316,0.000007
 29,0.00000792,0.00000445,0.00001020,0.00001579,-0.00000323,-0.00097541
 ,-0.02812563,-0.00487227,-0.00213493,0.05011221,0.06209967,-0.00002297
 ,0.00119331,0.00373968,-0.00023579,-0.00015272,0.00020120,-0.00057144,
 -0.00007748,-0.00092472,-0.01659838,0.02581278,-0.00726160,-0.00003046
 ,0.00002262,-0.00033379,0.00018613,0.00001752,-0.00040270,0.00016476,-
 0.00007545,0.00009957,0.00000560,0.00005038,-0.00002411,-0.00030277,-0
 .00007481,0.00024164,-0.00040879,0.00049232,-0.00207738,-0.22802447,0.
 20472282,-0.05955594,-0.00252540,0.00042953,0.00122856,0.00005237,-0.0
 0000486,0.00006419,-0.00012599,0.00001092,-0.00004029,-0.00011617,-0.0
 0002665,-0.00007996,0.00010860,-0.00008695,0.00038291,-0.00073933,0.00
 043369,0.00056446,0.57281753,-0.00233811,0.00098845,-0.00252577,0.0000
 6040,0.00038870,0.00022544,0.00022442,-0.00003714,0.00028176,0.0134704
 4,-0.00679783,0.00165604,-0.00015310,-0.00029558,-0.00002906,0.0000172
 7,-0.00006162,0.00017994,-0.00003199,-0.00037355,0.00058792,0.00009436
 ,-0.00002657,0.00006792,0.00015367,-0.00001739,-0.00006575,-0.00053528
 ,0.00019325,0.00023129,0.20046099,-0.35115411,0.13418225,-0.00000376,0
 .00146291,0.00015630,-0.00000580,0.00000701,-0.00000699,0.00004783,0.0
 0000632,0.00003128,0.00008393,-0.00000784,0.00007243,0.00026531,0.0007
 2833,0.00005594,-0.00022381,0.00005828,-0.00077547,-0.25090586,0.55870
 822,0.00133426,-0.00116293,-0.00271335,0.00005605,0.00022028,-0.000140
 41,0.00059305,0.00030142,0.00081069,0.00830120,-0.00861357,0.01138617,
 -0.00000893,-0.00003311,0.00042697,-0.00019089,-0.00008038,0.00034607,
 -0.00033901,0.00072933,-0.00028479,-0.00010561,0.00000633,-0.00001834,
 0.00023475,0.00004475,-0.00022474,0.00036566,-0.00276093,0.00056761,-0
 .05690685,0.13163229,-0.13503421,0.00148953,-0.00153798,-0.00091616,-0
 .00008345,0.00000912,-0.00006291,0.00008633,0.00000051,0.00002401,0.00
 007301,0.00000906,0.00003669,-0.00010631,-0.00022791,-0.00001398,0.000
 27397,0.00077462,0.00056607,-0.12655939,-0.24683474,0.45175343,0.00171
 430,-0.00029555,-0.00000225,-0.00064249,0.00004923,0.00041839,0.000390
 21,-0.00038510,0.00099325,-0.00794465,-0.01492122,0.02141834,-0.000698
 45,-0.00006382,-0.00112886,0.00022226,0.00007662,-0.00047728,-0.002299
 72,-0.00030980,0.00073124,0.00000683,0.00004861,-0.00015679,-0.0000048
 9,0.00000059,-0.00010580,-0.00190196,0.00421917,-0.00018917,-0.0840629
 5,-0.04675536,0.07891501,0.00069018,0.00041769,-0.00000929,0.00018474,
 -0.00002007,0.00007813,-0.00005475,-0.00001166,-0.00002393,-0.00004763
 ,0.00000893,-0.00000143,-0.00012779,-0.00019490,0.00038792,0.00008324,
 -0.00020697,-0.00031045,0.00897329,0.01274041,-0.01410961,0.08503251,0
 .00006145,0.00016028,0.00023926,-0.00003274,-0.00010972,0.00051159,-0.
 00007908,0.00005328,-0.00043312,0.00446368,0.00797418,-0.00882161,0.00
 014402,0.00033324,-0.00018348,0.00010387,0.00000509,-0.00016522,0.0011
 8265,0.00030866,-0.00041594,0.00006065,-0.00002953,-0.00000150,0.00000
 050,-0.00000238,0.00004898,0.00191602,-0.00064760,0.00062268,-0.044598
 31,-0.13021016,0.11731628,-0.00095005,0.00069535,0.00030663,0.00007089
 ,-0.00000429,0.00002592,0.00000483,0.00000170,0.00001249,-0.00003164,0
 .00000121,-0.00001204,-0.00023478,-0.00015103,0.00001646,0.00011328,0.
 00021385,-0.00011502,-0.00713308,-0.01073991,0.02254546,0.04179202,0.1
 3278859,0.00000210,-0.00017835,-0.00059593,-0.00038757,0.00000675,-0.0
 0006042,-0.00011293,0.00010094,-0.00042795,0.00556777,0.00690995,-0.00
 794546,-0.00101762,-0.00002438,0.00013657,-0.00010773,0.00003763,0.000
 17558,0.00118509,0.00029823,-0.00031178,0.00003856,-0.00003007,0.00003
 404,0.00004008,0.00000902,0.00003994,0.00063644,-0.00170622,0.00174949
 ,0.07547584,0.11874265,-0.21362629,-0.00031311,0.00001176,0.00035264,-
 0.00005573,0.00000712,-0.00004468,0.00001115,0.00000186,0.00000570,0.0
 0002682,0.00000365,0.00001482,-0.00015640,-0.00003625,-0.00004702,-0.0
 0000865,0.00013213,-0.00009010,0.00488731,0.00769641,-0.00418403,-0.08
 524552,-0.13335395,0.22188322,-0.00035061,0.00015503,0.00038624,-0.000
 03433,-0.00004591,-0.00001107,-0.00025189,0.00023931,-0.00032056,-0.00
 134762,-0.00280559,-0.00264750,0.00002038,0.00002479,-0.00000052,0.000
 00331,-0.00002999,0.00000991,0.00053099,-0.00024674,-0.00022293,-0.000
 05796,-0.00002439,0.00005031,0.00000146,0.00002146,0.00003800,-0.00120
 690,0.00104778,0.00041062,0.01000694,0.01050361,-0.01385729,0.00063849
 ,-0.00048598,-0.00005819,0.00000029,0.00000404,-0.00000172,0.00000869,
 0.00000016,0.00000787,-0.00000141,0.00000476,-0.00000353,-0.00002415,-
 0.00017705,-0.00003089,-0.00138636,0.00006247,0.00044295,-0.07322926,-
 0.03572812,0.06765607,0.00159082,0.00586998,0.00247171,0.06792567,-0.0
 0031247,0.00047018,0.00046227,-0.00010008,-0.00001499,0.00019840,-0.00
 016194,-0.00006797,0.00026698,-0.00461188,-0.00168435,-0.00281101,0.00
 004518,-0.00004717,-0.00022691,0.00007300,-0.00002016,-0.00014346,-0.0
 0025179,0.00053423,-0.00053322,-0.00007665,0.00001892,-0.00006119,-0.0
 0002956,0.00002068,-0.00006171,0.00058074,-0.00083266,-0.00000566,-0.0
 0732909,-0.01087486,0.02241905,0.00072811,-0.00035222,-0.00019766,0.00
 006545,0.00000266,0.00002754,-0.00001469,0.00000143,0.00000187,-0.0000
 2547,-0.00000022,-0.00001251,0.00019801,-0.00023194,-0.00045042,0.0000
 0205,0.00069255,0.00017033,-0.03319781,-0.13183749,0.12430880,0.006489
 90,0.00157926,0.00516715,0.03584295,0.13720876,-0.00039664,0.00029494,
 0.00062266,-0.00002897,-0.00010533,0.00002601,-0.00022429,0.00012080,-
 0.00035548,-0.00206882,-0.00351779,-0.00290029,0.00006697,-0.00000477,
 0.00000920,0.00002654,-0.00000345,-0.00001575,0.00018806,-0.00067825,0
 .00030378,-0.00002476,-0.00004402,0.00009355,-0.00005125,-0.00000489,0
 .00004753,0.00049403,0.00088981,0.00001015,0.00540417,0.00743170,-0.00
 548068,0.00054654,-0.00027087,-0.00007607,-0.00001625,0.00000768,0.000
 01502,-0.00000617,-0.00000142,-0.00000098,-0.00000831,0.00000169,-0.00
 002242,0.00015092,0.00001469,-0.00005732,0.00004238,-0.00093274,-0.000
 09414,0.06489298,0.12685025,-0.21381066,0.00178998,0.00531659,0.005344
 28,-0.07246915,-0.14327123,0.22372429,0.00067755,-0.00015391,-0.000162
 13,0.00002582,-0.00006940,-0.00013579,0.00021747,-0.00014039,0.0001956
 9,0.00396685,0.00474017,0.00216132,-0.00006085,0.00009879,0.00002158,-
 0.00000397,0.00004001,-0.00001794,-0.00033023,-0.00001082,0.00001707,0
 .00004002,0.00002676,-0.00004727,-0.00000439,-0.00001805,-0.00001605,0
 .00034731,0.00018508,-0.00032692,-0.01241428,0.00365225,0.00909059,-0.
 00144117,0.00062735,0.00044703,-0.00000766,-0.00000803,-0.00000480,-0.
 00002209,0.00000020,-0.00000826,-0.00002548,-0.00000944,-0.00001277,-0
 .00000474,0.00001096,0.00004001,0.00009443,-0.00000325,-0.00002284,-0.
 25937705,0.06230678,0.11794618,-0.00110309,-0.00272415,-0.00293761,-0.
 00283654,0.00208605,0.00169206,0.27226209,0.00130940,-0.00080477,-0.00
 146344,0.00010165,0.00005622,-0.00017942,0.00045892,-0.00012071,0.0006
 9498,0.00458749,0.00254851,0.00711792,-0.00004384,0.00001787,0.0000575
 7,-0.00005262,0.00003146,0.00009219,-0.00026754,0.00036992,-0.00022116
 ,0.00005301,0.00001029,-0.00008566,0.00010909,0.00001328,-0.00012367,-
 0.00020479,-0.00056098,0.00036518,0.02365151,-0.00396271,-0.01171881,-
 0.00091569,0.00020895,0.00018450,-0.00000673,-0.00000224,-0.00001785,0
 .00002879,-0.00000451,0.00000515,0.00002990,0.00000842,0.00002405,-0.0
 0000517,-0.00003961,-0.00012281,0.00016513,0.00044014,0.00002767,0.058
 54977,-0.06119245,-0.01933040,-0.00267873,-0.00222006,-0.00379604,-0.0
 1423257,0.00543537,0.00790661,-0.07063697,0.05976761,0.00100348,-0.000
 53351,-0.00047583,0.00001945,-0.00002076,-0.00016785,0.00022709,-0.000
 09508,0.00013858,0.00300810,0.00620967,0.00466887,-0.00005523,0.000031
 58,0.00005362,-0.00001321,0.00007034,0.00002297,-0.00003539,-0.0003802
 6,0.00015773,0.00010110,-0.00001104,-0.00001204,0.00003624,-0.00002527
 ,0.00000455,0.00001578,0.00084569,-0.00011829,-0.01078859,0.00389293,0
 .00809286,-0.00159751,0.00055095,0.00061386,-0.00001023,-0.00000333,-0
 .00000958,-0.00001113,-0.00000133,-0.00000665,0.00000539,-0.00000183,0
 .00000798,-0.00004486,0.00008830,0.00014095,-0.00007649,-0.00045516,-0
 .00009984,0.12095738,-0.02203740,-0.10851411,-0.00297188,-0.00346048,-
 0.00240264,0.01814970,-0.00524744,-0.00738268,-0.12791916,0.02058345,0
 .10528756\\-0.00076026,-0.00106707,-0.00000350,0.00077535,0.00132508,0
 .00000197,-0.00002414,-0.00028504,-0.00007405,-0.00002331,-0.00000993,
 0.00004798,0.00000412,0.00001427,-0.00000312,0.00000063,-0.00005693,-0
 .00000274,-0.00002222,-0.00001784,0.00003954,0.00001116,0.00000741,0.0
 0000661,0.00000286,0.00001010,0.00002103,-0.00000673,0.00005442,-0.000
 00704,-0.00000591,-0.00002257,-0.00002492,0.00000376,-0.00000033,-0.00
 000606,-0.00000103,0.00002744,0.00000045,-0.00000263,0.00001061,0.0000
 0945,0.00000644,0.00001122,-0.00000657,0.00002511,-0.00002073,-0.00000
 914,0.00000659,0.00000089,0.00000026,-0.00000414,-0.00000736,-0.000005
 35,0.00000542,0.00000670,0.00000504,0.00000476,0.00001068,0.00000590,0
 .00000417,0.00000898,0.00000426\\\@


 ACHIEVEMENT--  THE MAN WHO ROWS THE BOAT GENERALLY 
                DOESN'T HAVE TIME TO ROCK IT.

                   -- FROM THE BACK OF A SUGAR PACKET
 Job cpu time:       0 days  2 hours 25 minutes 55.9 seconds.
 Elapsed time:       0 days  0 hours 12 minutes 10.5 seconds.
 File lengths (MBytes):  RWF=    204 Int=      0 D2E=      0 Chk=     32 Scr=      1
 Normal termination of Gaussian 16 at Fri Jun 10 14:05:00 2022.
