 Entering Gaussian System, Link 0=g16
 Input=ts_initalOptXYZ_aligned_sp.gjf
 Output=ts_initalOptXYZ_aligned_sp.out
 Initial command:
 /software/gaussian/g16-a03/l1.exe "/local_scratch/11174411/Gau-26967.inp" -scrdir="/local_scratch/11174411/"
 Entering Link 1 = /software/gaussian/g16-a03/l1.exe PID=     26968.
  
 Copyright (c) 1988,1990,1992,1993,1995,1998,2003,2009,2016,
            Gaussian, Inc.  All Rights Reserved.
  
 This is part of the Gaussian(R) 16 program.  It is based on
 the Gaussian(R) 09 system (copyright 2009, Gaussian, Inc.),
 the Gaussian(R) 03 system (copyright 2003, Gaussian, Inc.),
 the Gaussian(R) 98 system (copyright 1998, Gaussian, Inc.),
 the Gaussian(R) 94 system (copyright 1995, Gaussian, Inc.),
 the Gaussian 92(TM) system (copyright 1992, Gaussian, Inc.),
 the Gaussian 90(TM) system (copyright 1990, Gaussian, Inc.),
 the Gaussian 88(TM) system (copyright 1988, Gaussian, Inc.),
 the Gaussian 86(TM) system (copyright 1986, Carnegie Mellon
 University), and the Gaussian 82(TM) system (copyright 1983,
 Carnegie Mellon University). Gaussian is a federally registered
 trademark of Gaussian, Inc.
  
 This software contains proprietary and confidential information,
 including trade secrets, belonging to Gaussian, Inc.
  
 This software is provided under written license and may be
 used, copied, transmitted, or stored only in accord with that
 written license.
  
 The following legend is applicable only to US Government
 contracts under FAR:
  
                    RESTRICTED RIGHTS LEGEND
  
 Use, reproduction and disclosure by the US Government is
 subject to restrictions as set forth in subparagraphs (a)
 and (c) of the Commercial Computer Software - Restricted
 Rights clause in FAR 52.227-19.
  
 Gaussian, Inc.
 340 Quinnipiac St., Bldg. 40, Wallingford CT 06492
  
  
 ---------------------------------------------------------------
 Warning -- This program may not be used in any manner that
 competes with the business of Gaussian, Inc. or will provide
 assistance to any competitor of Gaussian, Inc.  The licensee
 of this program is prohibited from giving any competitor of
 Gaussian, Inc. access to this program.  By using this program,
 the user acknowledges that Gaussian, Inc. is engaged in the
 business of creating and licensing software in the field of
 computational chemistry and represents and warrants to the
 licensee that it is not a competitor of Gaussian, Inc. and that
 it will not use this program in any manner prohibited above.
 ---------------------------------------------------------------
  

 Cite this work as:
 Gaussian 16, Revision A.03,
 M. J. Frisch, G. W. Trucks, H. B. Schlegel, G. E. Scuseria, 
 M. A. Robb, J. R. Cheeseman, G. Scalmani, V. Barone, 
 G. A. Petersson, H. Nakatsuji, X. Li, M. Caricato, A. V. Marenich, 
 J. Bloino, B. G. Janesko, R. Gomperts, B. Mennucci, H. P. Hratchian, 
 J. V. Ortiz, A. F. Izmaylov, J. L. Sonnenberg, D. Williams-Young, 
 F. Ding, F. Lipparini, F. Egidi, J. Goings, B. Peng, A. Petrone, 
 T. Henderson, D. Ranasinghe, V. G. Zakrzewski, J. Gao, N. Rega, 
 G. Zheng, W. Liang, M. Hada, M. Ehara, K. Toyota, R. Fukuda, 
 J. Hasegawa, M. Ishida, T. Nakajima, Y. Honda, O. Kitao, H. Nakai, 
 T. Vreven, K. Throssell, J. A. Montgomery, Jr., J. E. Peralta, 
 F. Ogliaro, M. J. Bearpark, J. J. Heyd, E. N. Brothers, K. N. Kudin, 
 V. N. Staroverov, T. A. Keith, R. Kobayashi, J. Normand, 
 K. Raghavachari, A. P. Rendell, J. C. Burant, S. S. Iyengar, 
 J. Tomasi, M. Cossi, J. M. Millam, M. Klene, C. Adamo, R. Cammi, 
 J. W. Ochterski, R. L. Martin, K. Morokuma, O. Farkas, 
 J. B. Foresman, and D. J. Fox, Gaussian, Inc., Wallingford CT, 2016.
 
 ******************************************
 Gaussian 16:  ES64L-G16RevA.03 25-Dec-2016
                10-Jun-2022 
 ******************************************
 %nprocshared=12
 Will use up to   12 processors via shared memory.
 %chk=checkpoint.chk
 %mem=12GB
 --------------------------
 # sp B3LYP/Def2TZVP NoSymm
 --------------------------
 1/38=1,172=1/1;
 2/12=2,15=1,17=6,18=5,40=1/2;
 3/5=44,7=101,11=2,25=1,30=1,74=-5/1,2,3;
 4//1;
 5/5=2,38=5/2;
 6/7=2,8=2,9=2,10=2,28=1/1;
 99/5=1,9=1/99;
 ---------------------------------
 ts_initalOptXYZ_aligned_AlignedSp
 ---------------------------------
 Symbolic Z-matrix:
 Charge =  0 Multiplicity = 1
 1                     2.33795   1.57658  -0.82768 
 7                     1.93473   0.80413  -0.32495 
 1                     3.44371  -0.6799   -0.6963 
 6                     2.46266  -0.48282  -0.29831 
 1                     1.6868   -2.36349   0.46485 
 6                     1.55554  -1.31135   0.27688 
 1                     0.08341   2.90509   0.14381 
 1                    -2.26602   2.39768  -0.074 
 1                    -3.16511   0.22379  -0.51752 
 1                    -0.19637  -0.70379   1.4968 
 6                     0.39513  -0.51842   0.60838 
 6                     0.68227   0.80868   0.208 
 6                    -0.2482    1.87626   0.18266 
 8                    -1.65188  -2.09651  -0.24152 
 6                    -1.50329  -0.9301   -0.14917 
 6                    -1.57273   1.56951   0.02102 
 6                    -2.1468    0.28611  -0.14665 
 
                          Input orientation:                          
 ---------------------------------------------------------------------
 Center     Atomic      Atomic             Coordinates (Angstroms)
 Number     Number       Type             X           Y           Z
 ---------------------------------------------------------------------
      1          1           0        2.337947    1.576578   -0.827683
      2          7           0        1.934734    0.804126   -0.324952
      3          1           0        3.443712   -0.679899   -0.696295
      4          6           0        2.462660   -0.482820   -0.298308
      5          1           0        1.686804   -2.363491    0.464853
      6          6           0        1.555541   -1.311352    0.276878
      7          1           0        0.083412    2.905087    0.143806
      8          1           0       -2.266022    2.397675   -0.074004
      9          1           0       -3.165113    0.223793   -0.517520
     10          1           0       -0.196370   -0.703786    1.496801
     11          6           0        0.395132   -0.518422    0.608381
     12          6           0        0.682270    0.808678    0.207997
     13          6           0       -0.248195    1.876260    0.182657
     14          8           0       -1.651877   -2.096509   -0.241518
     15          6           0       -1.503292   -0.930096   -0.149172
     16          6           0       -1.572729    1.569510    0.021022
     17          6           0       -2.146803    0.286113   -0.146647
 ---------------------------------------------------------------------
                    Distance matrix (angstroms):
                    1          2          3          4          5
     1  H    0.000000
     2  N    1.005983   0.000000
     3  H    2.516280   2.148776   0.000000
     4  C    2.130003   1.391275   1.076892   0.000000
     5  H    4.197473   3.273997   2.696196   2.172853   0.000000
     6  C    3.189413   2.231868   2.216075   1.356528   1.076829
     7  H    2.791354   2.839219   4.984928   4.163436   5.516507
     8  H    4.736957   4.499858   6.516116   5.541480   6.211594
     9  H    5.675376   5.136371   6.672720   5.676195   5.585713
    10  H    4.126263   3.183424   4.249757   3.215849   2.714016
    11  C    3.197786   2.233969   3.319954   2.257881   2.256833
    12  C    2.098468   1.361147   3.264838   2.257011   3.337322
    13  C    2.792620   2.484415   4.575662   3.625648   4.668977
    14  O    5.454709   4.613504   5.308355   4.420026   3.423015
    15  C    4.636692   3.854666   4.983452   3.993879   3.550825
    16  C    4.001717   3.606634   5.544282   4.538545   5.127381
    17  C    4.716152   4.118140   5.699925   4.675618   4.700093
                    6          7          8          9         10
     6  C    0.000000
     7  H    4.468023   0.000000
     8  H    5.337073   2.413452   0.000000
     9  H    5.027158   4.263755   2.393916   0.000000
    10  H    2.219581   3.864303   4.045979   3.705581   0.000000
    11  C    1.444016   3.468921   4.006371   3.807083   1.083293
    12  C    2.293878   2.181211   3.361080   3.958639   2.172688
    13  C    3.663770   1.081646   2.099851   3.424807   2.895911
    14  O    3.342564   5.308075   4.539044   2.783857   2.660814
    15  C    3.111806   4.160780   3.414889   2.056402   2.113880
    16  C    4.260387   2.131114   1.084224   2.153292   3.039764
    17  C    4.054457   3.452137   2.116172   1.085535   2.735875
                   11         12         13         14         15
    11  C    0.000000
    12  C    1.415609   0.000000
    13  C    2.515872   1.416382   0.000000
    14  O    2.720833   3.753720   4.234754   0.000000
    15  C    2.085036   2.815597   3.092089   1.179459   0.000000
    16  C    2.928639   2.387225   1.369165   3.676260   2.506355
    17  C    2.771061   2.898707   2.498344   2.435332   1.375964
                   16         17
    16  C    0.000000
    17  C    1.415903   0.000000
 Symmetry turned off by external request.
 Stoichiometry    C8H7NO
 Framework group  C1[X(C8H7NO)]
 Deg. of freedom    45
 Full point group                 C1      NOp   1
 Rotational constants (GHZ):           2.1586789           1.3713930           0.8800753
 Standard basis: def2TZVP (5D, 7F)
   352 basis functions,   566 primitive gaussians,   402 cartesian basis functions
    35 alpha electrons       35 beta electrons
       nuclear repulsion energy       480.1692803876 Hartrees.
 NAtoms=   17 NActive=   17 NUniq=   17 SFac= 1.00D+00 NAtFMM=   60 NAOKFM=F Big=F
 Integral buffers will be    131072 words long.
 Raffenetti 2 integral format.
 Two-electron integral symmetry is turned off.
 One-electron integrals computed using PRISM.
   1 Symmetry operations used in ECPInt.
 ECPInt:  NShTT=    9591 NPrTT=   29644 LenC2=    9332 LenP2D=   22719.
 LDataN:  DoStor=T MaxTD1= 6 Len=  172
 NBasis=   352 RedAO= T EigKep=  3.58D-05  NBF=   352
 NBsUse=   352 1.00D-06 EigRej= -1.00D+00 NBFU=   352
 ExpMin= 9.52D-02 ExpMax= 2.70D+04 ExpMxC= 9.22D+02 IAcc=3 IRadAn=         5 AccDes= 0.00D+00
 Harris functional with IExCor=  402 and IRadAn=       5 diagonalized for initial guess.
 HarFok:  IExCor=  402 AccDes= 0.00D+00 IRadAn=         5 IDoV= 1 UseB2=F ITyADJ=14
 ICtDFT=  3500011 ScaDFX=  1.000000  1.000000  1.000000  1.000000
 FoFCou: FMM=F IPFlag=           0 FMFlag=      100000 FMFlg1=           0
         NFxFlg=           0 DoJE=T BraDBF=F KetDBF=T FulRan=T
         wScrn=  0.000000 ICntrl=       500 IOpCl=  0 I1Cent=   200000004 NGrid=           0
         NMat0=    1 NMatS0=      1 NMatT0=    0 NMatD0=    1 NMtDS0=    0 NMtDT0=    0
 Symmetry not used in FoFCou.
 Requested convergence on RMS density matrix=1.00D-08 within 128 cycles.
 Requested convergence on MAX density matrix=1.00D-06.
 Requested convergence on             energy=1.00D-06.
 No special actions if energy rises.
 Integral accuracy reduced to 1.0D-05 until final iterations.
 Initial convergence to 1.0D-05 achieved.  Increase integral accuracy.
 SCF Done:  E(RB3LYP) =  -439.135085167     A.U. after   15 cycles
            NFock= 15  Conv=0.81D-08     -V/T= 2.0049

 **********************************************************************

            Population analysis using the SCF density.

 **********************************************************************

 Alpha  occ. eigenvalues --  -19.14303 -14.37915 -10.27785 -10.22925 -10.21405
 Alpha  occ. eigenvalues --  -10.19272 -10.18027 -10.17577 -10.17044 -10.16967
 Alpha  occ. eigenvalues --   -1.07474  -1.00024  -0.83058  -0.79474  -0.75550
 Alpha  occ. eigenvalues --   -0.71101  -0.61853  -0.61368  -0.59807  -0.53842
 Alpha  occ. eigenvalues --   -0.49970  -0.48997  -0.46576  -0.45690  -0.44302
 Alpha  occ. eigenvalues --   -0.43481  -0.41931  -0.40199  -0.39193  -0.38068
 Alpha  occ. eigenvalues --   -0.36778  -0.32321  -0.26700  -0.24716  -0.19268
 Alpha virt. eigenvalues --   -0.05933  -0.02090   0.01907   0.02972   0.05556
 Alpha virt. eigenvalues --    0.06039   0.07350   0.08365   0.09107   0.10872
 Alpha virt. eigenvalues --    0.11328   0.12274   0.12996   0.14630   0.15827
 Alpha virt. eigenvalues --    0.16836   0.18939   0.19443   0.21250   0.21638
 Alpha virt. eigenvalues --    0.22128   0.22834   0.24434   0.25921   0.27021
 Alpha virt. eigenvalues --    0.27469   0.28594   0.29222   0.30786   0.31168
 Alpha virt. eigenvalues --    0.32813   0.33794   0.34566   0.35680   0.36202
 Alpha virt. eigenvalues --    0.37269   0.37519   0.38910   0.40193   0.41552
 Alpha virt. eigenvalues --    0.41877   0.42452   0.43499   0.43971   0.44422
 Alpha virt. eigenvalues --    0.44861   0.45267   0.46818   0.48341   0.48640
 Alpha virt. eigenvalues --    0.50368   0.50966   0.52833   0.53272   0.54692
 Alpha virt. eigenvalues --    0.57202   0.58450   0.60075   0.61521   0.61886
 Alpha virt. eigenvalues --    0.64206   0.64864   0.66353   0.67540   0.68680
 Alpha virt. eigenvalues --    0.70501   0.71039   0.73901   0.74570   0.77343
 Alpha virt. eigenvalues --    0.79676   0.80375   0.81930   0.85271   0.87024
 Alpha virt. eigenvalues --    0.88817   0.89937   0.92127   0.92977   0.94360
 Alpha virt. eigenvalues --    0.97018   0.97489   0.98096   0.99763   1.01663
 Alpha virt. eigenvalues --    1.05122   1.06624   1.08021   1.08055   1.08851
 Alpha virt. eigenvalues --    1.12819   1.14154   1.15599   1.16862   1.20352
 Alpha virt. eigenvalues --    1.21631   1.22909   1.25089   1.27070   1.27960
 Alpha virt. eigenvalues --    1.29129   1.31216   1.32023   1.33757   1.36395
 Alpha virt. eigenvalues --    1.39510   1.39979   1.41905   1.42114   1.44067
 Alpha virt. eigenvalues --    1.45898   1.47759   1.48914   1.49429   1.50278
 Alpha virt. eigenvalues --    1.50843   1.51170   1.54641   1.55342   1.58553
 Alpha virt. eigenvalues --    1.60492   1.60763   1.63439   1.63927   1.65087
 Alpha virt. eigenvalues --    1.65937   1.68470   1.72013   1.74851   1.76464
 Alpha virt. eigenvalues --    1.78958   1.80812   1.81799   1.84040   1.85194
 Alpha virt. eigenvalues --    1.88327   1.91221   1.92893   1.94647   1.98968
 Alpha virt. eigenvalues --    2.00499   2.01154   2.04862   2.04913   2.06113
 Alpha virt. eigenvalues --    2.09131   2.10896   2.13105   2.17415   2.19178
 Alpha virt. eigenvalues --    2.21166   2.22207   2.24379   2.26383   2.27618
 Alpha virt. eigenvalues --    2.31324   2.33460   2.36009   2.37318   2.40937
 Alpha virt. eigenvalues --    2.42307   2.47722   2.49471   2.52028   2.53170
 Alpha virt. eigenvalues --    2.54224   2.55361   2.58035   2.59166   2.59542
 Alpha virt. eigenvalues --    2.61417   2.64158   2.64882   2.65182   2.66896
 Alpha virt. eigenvalues --    2.69740   2.70910   2.72553   2.73536   2.75638
 Alpha virt. eigenvalues --    2.77115   2.77930   2.78319   2.80415   2.83123
 Alpha virt. eigenvalues --    2.84422   2.84808   2.86801   2.87575   2.89863
 Alpha virt. eigenvalues --    2.91590   2.92974   2.93996   2.94756   2.96343
 Alpha virt. eigenvalues --    2.99585   3.00254   3.02879   3.04626   3.05375
 Alpha virt. eigenvalues --    3.06799   3.09595   3.10947   3.11781   3.13056
 Alpha virt. eigenvalues --    3.14215   3.16589   3.17481   3.19482   3.19723
 Alpha virt. eigenvalues --    3.21233   3.22335   3.24186   3.25498   3.26661
 Alpha virt. eigenvalues --    3.27710   3.28969   3.29834   3.31350   3.32140
 Alpha virt. eigenvalues --    3.36675   3.37292   3.40135   3.41046   3.41847
 Alpha virt. eigenvalues --    3.42236   3.45578   3.46352   3.47742   3.49469
 Alpha virt. eigenvalues --    3.49979   3.52034   3.55675   3.58625   3.59757
 Alpha virt. eigenvalues --    3.60717   3.62007   3.65663   3.67212   3.72572
 Alpha virt. eigenvalues --    3.79024   3.79520   3.81528   3.86182   3.89122
 Alpha virt. eigenvalues --    3.90220   3.93461   3.94914   3.97407   4.00708
 Alpha virt. eigenvalues --    4.02421   4.04321   4.09807   4.11936   4.13133
 Alpha virt. eigenvalues --    4.17462   4.18048   4.20810   4.22770   4.24654
 Alpha virt. eigenvalues --    4.27081   4.34834   4.36916   4.38843   4.40917
 Alpha virt. eigenvalues --    4.44304   4.45048   4.52861   4.55500   4.59823
 Alpha virt. eigenvalues --    4.67960   4.68414   4.69917   4.72380   4.75459
 Alpha virt. eigenvalues --    4.79576   4.80910   4.87641   4.93609   4.96275
 Alpha virt. eigenvalues --    4.97983   5.01182   5.03466   5.08999   5.11315
 Alpha virt. eigenvalues --    5.15717   5.17035   5.18526   5.19895   5.27910
 Alpha virt. eigenvalues --    5.30083   5.35406   5.45211   5.55756   5.63535
 Alpha virt. eigenvalues --    5.64790   5.66968   5.87198   5.99071   6.30408
 Alpha virt. eigenvalues --    6.35667   6.43759   6.50147   6.62718   6.81029
 Alpha virt. eigenvalues --    6.95390   7.14014  22.26304  22.39442  22.60696
 Alpha virt. eigenvalues --   22.65213  22.75232  22.76506  23.10693  23.29684
 Alpha virt. eigenvalues --   32.30097  43.92044
          Condensed to atoms (all electrons):
               1          2          3          4          5          6
     1  H    0.473572   0.376997  -0.003267  -0.040228  -0.000099   0.008579
     2  N    0.376997   6.338408  -0.034732   0.364804   0.004285  -0.098126
     3  H   -0.003267  -0.034732   0.504144   0.409877  -0.002079  -0.023893
     4  C   -0.040228   0.364804   0.409877   4.937351  -0.047571   0.545014
     5  H   -0.000099   0.004285  -0.002079  -0.047571   0.521406   0.435105
     6  C    0.008579  -0.098126  -0.023893   0.545014   0.435105   5.072119
     7  H    0.002400  -0.000086  -0.000009   0.000381   0.000010  -0.001354
     8  H   -0.000030  -0.000211  -0.000001   0.000010  -0.000000   0.000096
     9  H   -0.000019  -0.000044  -0.000000  -0.000018  -0.000009  -0.000452
    10  H   -0.000159   0.004417  -0.000160   0.009664  -0.003006  -0.048282
    11  C    0.008055  -0.061725   0.004990  -0.025821  -0.044340   0.263401
    12  C   -0.046504   0.404944   0.006596  -0.117079   0.008717  -0.031414
    13  C    0.002473  -0.054050  -0.000666   0.001330  -0.000041   0.019141
    14  O    0.000036   0.000188  -0.000004  -0.000686   0.002211   0.017694
    15  C   -0.000282   0.001840   0.000017  -0.000449  -0.000440  -0.002505
    16  C   -0.000544  -0.002826   0.000072  -0.000299  -0.000078   0.004773
    17  C    0.000091   0.001871   0.000013   0.003173   0.000132  -0.006592
               7          8          9         10         11         12
     1  H    0.002400  -0.000030  -0.000019  -0.000159   0.008055  -0.046504
     2  N   -0.000086  -0.000211  -0.000044   0.004417  -0.061725   0.404944
     3  H   -0.000009  -0.000001  -0.000000  -0.000160   0.004990   0.006596
     4  C    0.000381   0.000010  -0.000018   0.009664  -0.025821  -0.117079
     5  H    0.000010  -0.000000  -0.000009  -0.003006  -0.044340   0.008717
     6  C   -0.001354   0.000096  -0.000452  -0.048282   0.263401  -0.031414
     7  H    0.560693  -0.008989  -0.000154  -0.000113   0.011284  -0.065916
     8  H   -0.008989   0.567915  -0.005987  -0.000270  -0.000926   0.012342
     9  H   -0.000154  -0.005987   0.564062   0.000124   0.008649   0.002297
    10  H   -0.000113  -0.000270   0.000124   0.534007   0.454839  -0.064830
    11  C    0.011284  -0.000926   0.008649   0.454839   5.289750   0.424016
    12  C   -0.065916   0.012342   0.002297  -0.064830   0.424016   4.922448
    13  C    0.420471  -0.044823   0.001069   0.006745  -0.076803   0.362909
    14  O    0.000004  -0.000190  -0.000113  -0.004691  -0.090012   0.001379
    15  C   -0.000068   0.005907  -0.026785  -0.022234   0.099305   0.045977
    16  C   -0.031568   0.409537  -0.053577  -0.007085  -0.021610  -0.071063
    17  C    0.007275  -0.046944   0.397371   0.006357  -0.052814  -0.043994
              13         14         15         16         17
     1  H    0.002473   0.000036  -0.000282  -0.000544   0.000091
     2  N   -0.054050   0.000188   0.001840  -0.002826   0.001871
     3  H   -0.000666  -0.000004   0.000017   0.000072   0.000013
     4  C    0.001330  -0.000686  -0.000449  -0.000299   0.003173
     5  H   -0.000041   0.002211  -0.000440  -0.000078   0.000132
     6  C    0.019141   0.017694  -0.002505   0.004773  -0.006592
     7  H    0.420471   0.000004  -0.000068  -0.031568   0.007275
     8  H   -0.044823  -0.000190   0.005907   0.409537  -0.046944
     9  H    0.001069  -0.000113  -0.026785  -0.053577   0.397371
    10  H    0.006745  -0.004691  -0.022234  -0.007085   0.006357
    11  C   -0.076803  -0.090012   0.099305  -0.021610  -0.052814
    12  C    0.362909   0.001379   0.045977  -0.071063  -0.043994
    13  C    5.156215   0.002400  -0.035731   0.555721  -0.034596
    14  O    0.002400   7.686117   0.665726   0.003927  -0.075689
    15  C   -0.035731   0.665726   4.611221  -0.016500   0.469051
    16  C    0.555721   0.003927  -0.016500   4.854349   0.395702
    17  C   -0.034596  -0.075689   0.469051   0.395702   5.247175
 Mulliken charges:
               1
     1  H    0.218931
     2  N   -0.245957
     3  H    0.139102
     4  C   -0.039454
     5  H    0.125797
     6  C   -0.153305
     7  H    0.105739
     8  H    0.112566
     9  H    0.113586
    10  H    0.134678
    11  C   -0.190237
    12  C    0.249175
    13  C   -0.281763
    14  O   -0.208296
    15  C    0.205952
    16  C   -0.018932
    17  C   -0.267582
 Sum of Mulliken charges =  -0.00000
 Mulliken charges with hydrogens summed into heavy atoms:
               1
     2  N   -0.027026
     4  C    0.099648
     6  C   -0.027507
    11  C   -0.055559
    12  C    0.249175
    13  C   -0.176025
    14  O   -0.208296
    15  C    0.205952
    16  C    0.093635
    17  C   -0.153997
 Electronic spatial extent (au):  <R**2>=           1287.5590
 Charge=             -0.0000 electrons
 Dipole moment (field-independent basis, Debye):
    X=              2.9086    Y=              2.8419    Z=             -0.6207  Tot=              4.1136
 Quadrupole moment (field-independent basis, Debye-Ang):
   XX=            -51.3058   YY=            -58.1394   ZZ=            -59.7936
   XY=             -2.2022   XZ=             -3.1279   YZ=             -3.5650
 Traceless Quadrupole moment (field-independent basis, Debye-Ang):
   XX=              5.1071   YY=             -1.7265   ZZ=             -3.3806
   XY=             -2.2022   XZ=             -3.1279   YZ=             -3.5650
 Octapole moment (field-independent basis, Debye-Ang**2):
  XXX=             16.8825  YYY=             14.8950  ZZZ=             -2.0887  XYY=             16.5776
  XXY=             12.6170  XXZ=            -16.5167  XZZ=              1.6828  YZZ=             -4.3559
  YYZ=             -0.7864  XYZ=             -2.1549
 Hexadecapole moment (field-independent basis, Debye-Ang**3):
 XXXX=           -903.1793 YYYY=           -619.5847 ZZZZ=           -109.6837 XXXY=              6.5727
 XXXZ=            -25.6099 YYYX=            -10.5824 YYYZ=            -15.6939 ZZZX=             -5.7789
 ZZZY=             -4.7429 XXYY=           -259.4804 XXZZ=           -189.2020 YYZZ=           -129.4483
 XXYZ=            -10.1335 YYXZ=             -7.6308 ZZXY=             15.2980
 N-N= 4.801692803876D+02 E-N=-1.982878189662D+03  KE= 4.369871434914D+02
 1\1\GINC-BHC0068\SP\RB3LYP\def2TZVP\C8H7N1O1\DHANAWAY\10-Jun-2022\0\\#
  sp B3LYP/Def2TZVP NoSymm\\ts_initalOptXYZ_aligned_AlignedSp\\0,1\H,0,
 2.337947,1.576578,-0.827683\N,0,1.934734,0.804126,-0.324952\H,0,3.4437
 12,-0.679899,-0.696295\C,0,2.46266,-0.48282,-0.298308\H,0,1.686804,-2.
 363491,0.464853\C,0,1.555541,-1.311352,0.276878\H,0,0.083412,2.905087,
 0.143806\H,0,-2.266022,2.397675,-0.074004\H,0,-3.165113,0.223793,-0.51
 752\H,0,-0.19637,-0.703786,1.496801\C,0,0.395132,-0.518422,0.608381\C,
 0,0.68227,0.808678,0.207997\C,0,-0.248195,1.87626,0.182657\O,0,-1.6518
 77,-2.096509,-0.241518\C,0,-1.503292,-0.930096,-0.149172\C,0,-1.572729
 ,1.56951,0.021022\C,0,-2.146803,0.286113,-0.146647\\Version=ES64L-G16R
 evA.03\HF=-439.1350852\RMSD=8.128e-09\Dipole=1.144318,1.1181061,-0.244
 2106\Quadrupole=3.7970245,-1.2836083,-2.5134162,-1.6373167,-2.325494,-
 2.6505109\PG=C01 [X(C8H7N1O1)]\\@


 IF I AM NOT FOR MYSELF, WHO WILL BE?
 BUT IF I AM ONLY FOR MYSELF, WHAT AM I?
 THOUGH A SEEKER SINCE MY BIRTH,
 HERE IS ALL I'VE LEARNED ON EARTH,
 THIS IS THE GIST OF WHAT I KNOW:
 GIVE ADVICE AND BUY A FOE.

 PRESSED FOR RULES AND VERITIES,
 ALL I RECOLLECT ARE THESE:
 FEED A COLD TO STARVE A FEVER,
 ARGUE WITH NO TRUE-BELIEVER.
 THINK-TOO-LONG IS NEVER-ACT,
 SCRATCH A MYTH AND FIND A FACT.

 STITCH IN TIME SAVES TWENTY STITCHES,
 GIVE THE RICH TO PLEASE THEM, RICHES.
 GIVE TO LOVE YOU HEARTH AND HALL,
 BUT DO NOT GIVE ADVICE AT ALL.

                                  -- HILLEL
 Job cpu time:       0 days  0 hours 17 minutes 40.0 seconds.
 Elapsed time:       0 days  0 hours  1 minutes 28.7 seconds.
 File lengths (MBytes):  RWF=     71 Int=      0 D2E=      0 Chk=     32 Scr=      1
 Normal termination of Gaussian 16 at Fri Jun 10 22:18:33 2022.
