 Entering Gaussian System, Link 0=g16
 Input=int_initalOpt_zmat_sp.gjf
 Output=int_initalOpt_zmat_sp.out
 Initial command:
 /software/gaussian/g16-a03/l1.exe "/local_scratch/11174417/Gau-5124.inp" -scrdir="/local_scratch/11174417/"
 Entering Link 1 = /software/gaussian/g16-a03/l1.exe PID=      5125.
  
 Copyright (c) 1988,1990,1992,1993,1995,1998,2003,2009,2016,
            Gaussian, Inc.  All Rights Reserved.
  
 This is part of the Gaussian(R) 16 program.  It is based on
 the Gaussian(R) 09 system (copyright 2009, Gaussian, Inc.),
 the Gaussian(R) 03 system (copyright 2003, Gaussian, Inc.),
 the Gaussian(R) 98 system (copyright 1998, Gaussian, Inc.),
 the Gaussian(R) 94 system (copyright 1995, Gaussian, Inc.),
 the Gaussian 92(TM) system (copyright 1992, Gaussian, Inc.),
 the Gaussian 90(TM) system (copyright 1990, Gaussian, Inc.),
 the Gaussian 88(TM) system (copyright 1988, Gaussian, Inc.),
 the Gaussian 86(TM) system (copyright 1986, Carnegie Mellon
 University), and the Gaussian 82(TM) system (copyright 1983,
 Carnegie Mellon University). Gaussian is a federally registered
 trademark of Gaussian, Inc.
  
 This software contains proprietary and confidential information,
 including trade secrets, belonging to Gaussian, Inc.
  
 This software is provided under written license and may be
 used, copied, transmitted, or stored only in accord with that
 written license.
  
 The following legend is applicable only to US Government
 contracts under FAR:
  
                    RESTRICTED RIGHTS LEGEND
  
 Use, reproduction and disclosure by the US Government is
 subject to restrictions as set forth in subparagraphs (a)
 and (c) of the Commercial Computer Software - Restricted
 Rights clause in FAR 52.227-19.
  
 Gaussian, Inc.
 340 Quinnipiac St., Bldg. 40, Wallingford CT 06492
  
  
 ---------------------------------------------------------------
 Warning -- This program may not be used in any manner that
 competes with the business of Gaussian, Inc. or will provide
 assistance to any competitor of Gaussian, Inc.  The licensee
 of this program is prohibited from giving any competitor of
 Gaussian, Inc. access to this program.  By using this program,
 the user acknowledges that Gaussian, Inc. is engaged in the
 business of creating and licensing software in the field of
 computational chemistry and represents and warrants to the
 licensee that it is not a competitor of Gaussian, Inc. and that
 it will not use this program in any manner prohibited above.
 ---------------------------------------------------------------
  

 Cite this work as:
 Gaussian 16, Revision A.03,
 M. J. Frisch, G. W. Trucks, H. B. Schlegel, G. E. Scuseria, 
 M. A. Robb, J. R. Cheeseman, G. Scalmani, V. Barone, 
 G. A. Petersson, H. Nakatsuji, X. Li, M. Caricato, A. V. Marenich, 
 J. Bloino, B. G. Janesko, R. Gomperts, B. Mennucci, H. P. Hratchian, 
 J. V. Ortiz, A. F. Izmaylov, J. L. Sonnenberg, D. Williams-Young, 
 F. Ding, F. Lipparini, F. Egidi, J. Goings, B. Peng, A. Petrone, 
 T. Henderson, D. Ranasinghe, V. G. Zakrzewski, J. Gao, N. Rega, 
 G. Zheng, W. Liang, M. Hada, M. Ehara, K. Toyota, R. Fukuda, 
 J. Hasegawa, M. Ishida, T. Nakajima, Y. Honda, O. Kitao, H. Nakai, 
 T. Vreven, K. Throssell, J. A. Montgomery, Jr., J. E. Peralta, 
 F. Ogliaro, M. J. Bearpark, J. J. Heyd, E. N. Brothers, K. N. Kudin, 
 V. N. Staroverov, T. A. Keith, R. Kobayashi, J. Normand, 
 K. Raghavachari, A. P. Rendell, J. C. Burant, S. S. Iyengar, 
 J. Tomasi, M. Cossi, J. M. Millam, M. Klene, C. Adamo, R. Cammi, 
 J. W. Ochterski, R. L. Martin, K. Morokuma, O. Farkas, 
 J. B. Foresman, and D. J. Fox, Gaussian, Inc., Wallingford CT, 2016.
 
 ******************************************
 Gaussian 16:  ES64L-G16RevA.03 25-Dec-2016
                10-Jun-2022 
 ******************************************
 %nprocshared=12
 Will use up to   12 processors via shared memory.
 %chk=checkpoint.chk
 %mem=12GB
 --------------------------
 # sp B3LYP/Def2TZVP NoSymm
 --------------------------
 1/38=1,172=1/1;
 2/12=2,15=1,17=6,18=5,40=1/2;
 3/5=44,7=101,11=2,25=1,30=1,74=-5/1,2,3;
 4//1;
 5/5=2,38=5/2;
 6/7=2,8=2,9=2,10=2,28=1/1;
 99/5=1,9=1/99;
 ----------------------------
 int_initalOpt_zmat_AlignedSp
 ----------------------------
 Symbolic Z-matrix:
 Charge =  0 Multiplicity = 1
 H
 C                    1    R2
 C                    2    R3       1    A3
 C                    2    R4       1    A4       3    D4       0
 H                    2    R5       1    A5       3    D5       0
 H                    4    R6       2    A6       1    D6       0
 C                    3    R7       2    A7       1    D7       0
 C                    4    R8       2    A8       6    D8       0
 H                    3    R9       2    A9       7    D9       0
 H                    3    R10      2    A10      7    D10      0
 H                    7    R11      3    A11      2    D11      0
 H                    8    R12      4    A12      2    D12      0
 C                    7    R13      3    A13      11   D13      0
 C                    8    R14      4    A14      12   D14      0
 H                    14   R15      8    A15      4    D15      0
 H                    14   R16      8    A16      15   D16      0
 C                    13   R17      7    A17      3    D17      0
 H                    13   R18      7    A18      17   D18      0
 H                    17   R19      13   A19      7    D19      0
 H                    17   R20      13   A20      19   D20      0
       Variables:
  R2                    1.08842                  
  R3                    1.547                    
  R4                    1.55024                  
  R5                    1.09047                  
  R6                    1.09391                  
  R7                    1.54464                  
  R8                    1.49691                  
  R9                    1.09012                  
  R10                   1.08992                  
  R11                   1.09522                  
  R12                   1.08748                  
  R13                   1.49096                  
  R14                   1.32766                  
  R15                   1.08276                  
  R16                   1.08259                  
  R17                   1.32782                  
  R18                   1.08843                  
  R19                   1.08255                  
  R20                   1.08329                  
  A3                  117.33077                  
  A4                  117.70469                  
  A5                  108.22625                  
  A6                  114.97587                  
  A7                   88.90092                  
  A8                  117.64032                  
  A9                  111.25178                  
  A10                 117.8448                   
  A11                 109.2684                   
  A12                 114.39828                  
  A13                 121.87744                  
  A14                 127.63946                  
  A15                 122.62297                  
  A16                 120.97448                  
  A17                 126.32445                  
  A18                 115.22677                  
  A19                 121.35263                  
  A20                 122.02579                  
  D4                  105.16846                  
  D5                 -127.8994                   
  D6                  106.94681                  
  D7                  139.8787                   
  D8                 -129.20118                  
  D9                 -112.93112                  
  D10                 120.45747                  
  D11                  89.0167                   
  D12                -166.73104                  
  D13                 127.44076                  
  D14                -179.23741                  
  D15                  -0.66026                  
  D16                 179.75198                  
  D17                  -6.20754                  
  D18                -178.924                    
  D19                -178.9778                   
  D20                 179.73645                  
 
                          Input orientation:                          
 ---------------------------------------------------------------------
 Center     Atomic      Atomic             Coordinates (Angstroms)
 Number     Number       Type             X           Y           Z
 ---------------------------------------------------------------------
      1          1           0        0.000000    0.000000    0.000000
      2          6           0        0.000000    0.000000    1.088420
      3          6           0        1.374312    0.000000    1.798690
      4          6           0       -0.359129    1.324696    1.809149
      5          1           0       -0.636240   -0.817305    1.429485
      6          1           0       -1.346472    1.341491    2.279788
      7          6           0        0.805790    0.995195    2.834201
      8          6           0       -0.184590    2.600223    1.045410
      9          1           0        2.141157    0.460422    1.175530
     10          1           0        1.752286   -0.950052    2.176141
     11          1           0        0.351287    0.437368    3.659889
     12          1           0       -0.229618    3.499081    1.655861
     13          6           0        1.636195    2.090388    3.412074
     14          6           0       -0.000486    2.743987   -0.261537
     15          1           0        0.054102    1.901513   -0.939494
     16          1           0        0.099623    3.726331   -0.705370
     17          6           0        2.936668    2.276776    3.219388
     18          1           0        1.104656    2.780724    4.064435
     19          1           0        3.465006    3.093758    3.694065
     20          1           0        3.523317    1.621867    2.586579
 ---------------------------------------------------------------------
                    Distance matrix (angstroms):
                    1          2          3          4          5
     1  H    0.000000
     2  C    1.088420   0.000000
     3  C    2.263630   1.547003   0.000000
     4  C    2.270861   1.550239   2.181684   0.000000
     5  H    1.765281   1.090465   2.201504   2.192966   0.000000
     6  H    2.968168   2.243199   3.071436   1.093906   2.426488
     7  C    3.110049   2.165054   1.544640   1.586297   2.708843
     8  C    2.808579   2.607122   3.123902   1.496907   3.468573
     9  H    2.485641   2.191832   1.090122   2.720270   3.067737
    10  H    2.951050   2.270736   1.089923   3.125257   2.506028
    11  H    3.702631   2.631947   2.168394   2.171930   2.743012
    12  H    3.877907   3.552222   3.851825   2.183626   4.341402
    13  C    4.323090   3.527921   2.653547   2.671511   4.189188
    14  C    2.756423   3.058079   3.696494   2.535893   3.993312
    15  H    2.121633   2.780488   3.585576   2.838752   3.671594
    16  H    3.793812   4.136804   4.666979   3.507294   5.073827
    17  C    4.916521   4.283544   3.105325   3.709111   5.053984
    18  H    5.047011   4.220113   3.597046   3.057614   4.787431
    19  H    5.934958   5.326067   4.187456   4.615897   6.102865
    20  H    4.662039   4.157968   2.805253   3.970654   4.958865
                    6          7          8          9         10
     6  H    0.000000
     7  C    2.249339   0.000000
     8  C    2.111414   2.599372   0.000000
     9  H    3.762875   2.195535   3.163033   0.000000
    10  H    3.855414   2.261169   4.199344   1.772534   0.000000
    11  H    2.367383   1.095219   3.435201   3.062058   2.467639
    12  H    2.508355   2.954657   1.087484   3.883908   4.898307
    13  C    3.277075   1.490959   3.029239   2.813166   3.284095
    14  C    3.199533   3.645812   1.327657   3.444774   4.760295
    15  H    3.555139   3.953127   2.117784   3.302403   4.552189
    16  H    4.085318   4.526183   2.100982   4.286235   5.736109
    17  C    4.483625   2.516239   3.817466   2.847689   3.592149
    18  H    3.356246   2.188815   3.287742   3.847585   4.231284
    19  H    5.312339   3.494963   4.536353   3.876861   4.646493
    20  H    4.887492   2.799820   4.132911   2.291371   3.149567
                   11         12         13         14         15
    11  H    0.000000
    12  H    3.705086   0.000000
    13  C    2.108287   2.924032   0.000000
    14  C    4.563093   2.073423   4.074474   0.000000
    15  H    4.835944   3.060814   4.634095   1.082759   0.000000
    16  H    5.471389   2.394881   4.689425   1.082593   1.840338
    17  C    3.203382   3.736846   1.327817   4.578427   5.074081
    18  H    2.494501   2.845620   1.088427   4.465056   5.188061
    19  H    4.093022   4.238964   2.104952   5.270556   5.875847
    20  H    3.552014   4.298220   2.112388   4.667774   4.954477
                   16         17         18         19         20
    16  H    0.000000
    17  C    5.055072   0.000000
    18  H    4.965411   2.079504   0.000000
    19  H    5.575032   1.082553   2.409652   0.000000
    20  H    5.194938   1.083286   3.062178   1.842930   0.000000
 Symmetry turned off by external request.
 Stoichiometry    C8H12
 Framework group  C1[X(C8H12)]
 Deg. of freedom    54
 Full point group                 C1      NOp   1
 Rotational constants (GHZ):           2.7935544           1.6963920           1.3157301
 Standard basis: def2TZVP (5D, 7F)
   320 basis functions,   504 primitive gaussians,   360 cartesian basis functions
    30 alpha electrons       30 beta electrons
       nuclear repulsion energy       360.3732441530 Hartrees.
 NAtoms=   20 NActive=   20 NUniq=   20 SFac= 1.00D+00 NAtFMM=   60 NAOKFM=F Big=F
 Integral buffers will be    131072 words long.
 Raffenetti 2 integral format.
 Two-electron integral symmetry is turned off.
 One-electron integrals computed using PRISM.
   1 Symmetry operations used in ECPInt.
 ECPInt:  NShTT=    9316 NPrTT=   27240 LenC2=    9174 LenP2D=   21654.
 LDataN:  DoStor=T MaxTD1= 6 Len=  172
 NBasis=   320 RedAO= T EigKep=  3.42D-05  NBF=   320
 NBsUse=   320 1.00D-06 EigRej= -1.00D+00 NBFU=   320
 ExpMin= 9.52D-02 ExpMax= 1.36D+04 ExpMxC= 4.63D+02 IAcc=3 IRadAn=         5 AccDes= 0.00D+00
 Harris functional with IExCor=  402 and IRadAn=       5 diagonalized for initial guess.
 HarFok:  IExCor=  402 AccDes= 0.00D+00 IRadAn=         5 IDoV= 1 UseB2=F ITyADJ=14
 ICtDFT=  3500011 ScaDFX=  1.000000  1.000000  1.000000  1.000000
 FoFCou: FMM=F IPFlag=           0 FMFlag=      100000 FMFlg1=           0
         NFxFlg=           0 DoJE=T BraDBF=F KetDBF=T FulRan=T
         wScrn=  0.000000 ICntrl=       500 IOpCl=  0 I1Cent=   200000004 NGrid=           0
         NMat0=    1 NMatS0=      1 NMatT0=    0 NMatD0=    1 NMtDS0=    0 NMtDT0=    0
 Symmetry not used in FoFCou.
 Requested convergence on RMS density matrix=1.00D-08 within 128 cycles.
 Requested convergence on MAX density matrix=1.00D-06.
 Requested convergence on             energy=1.00D-06.
 No special actions if energy rises.
 Integral accuracy reduced to 1.0D-05 until final iterations.
 Initial convergence to 1.0D-05 achieved.  Increase integral accuracy.
 SCF Done:  E(RB3LYP) =  -312.116800339     A.U. after   13 cycles
            NFock= 13  Conv=0.67D-08     -V/T= 2.0056

 **********************************************************************

            Population analysis using the SCF density.

 **********************************************************************

 Alpha  occ. eigenvalues --  -10.18245 -10.18171 -10.17374 -10.17350 -10.16886
 Alpha  occ. eigenvalues --  -10.16703 -10.16162 -10.16074  -0.86026  -0.77607
 Alpha  occ. eigenvalues --   -0.75962  -0.67169  -0.66042  -0.59491  -0.55949
 Alpha  occ. eigenvalues --   -0.51312  -0.49606  -0.48263  -0.45706  -0.44642
 Alpha  occ. eigenvalues --   -0.40960  -0.39706  -0.36995  -0.36555  -0.34887
 Alpha  occ. eigenvalues --   -0.32688  -0.32523  -0.30629  -0.26335  -0.25433
 Alpha virt. eigenvalues --   -0.00014   0.00790   0.03672   0.04979   0.06218
 Alpha virt. eigenvalues --    0.06789   0.08623   0.09388   0.09762   0.11098
 Alpha virt. eigenvalues --    0.12636   0.13060   0.13914   0.14354   0.14583
 Alpha virt. eigenvalues --    0.16202   0.17986   0.18839   0.19494   0.20554
 Alpha virt. eigenvalues --    0.20834   0.22089   0.22915   0.24286   0.25362
 Alpha virt. eigenvalues --    0.26895   0.28168   0.29777   0.30816   0.31202
 Alpha virt. eigenvalues --    0.33109   0.33202   0.34796   0.35142   0.36383
 Alpha virt. eigenvalues --    0.37641   0.37985   0.38474   0.40141   0.40683
 Alpha virt. eigenvalues --    0.41170   0.41663   0.43329   0.44026   0.44326
 Alpha virt. eigenvalues --    0.44690   0.45723   0.46102   0.46795   0.47549
 Alpha virt. eigenvalues --    0.49014   0.49862   0.50099   0.50628   0.53304
 Alpha virt. eigenvalues --    0.54584   0.56177   0.58120   0.58455   0.59740
 Alpha virt. eigenvalues --    0.61247   0.64013   0.64819   0.67103   0.69057
 Alpha virt. eigenvalues --    0.71542   0.73081   0.74467   0.77185   0.77843
 Alpha virt. eigenvalues --    0.83717   0.87062   0.88652   0.89961   0.91429
 Alpha virt. eigenvalues --    0.93898   0.94171   0.95508   0.96008   0.97431
 Alpha virt. eigenvalues --    0.98737   1.00382   1.01560   1.02182   1.04297
 Alpha virt. eigenvalues --    1.07838   1.08318   1.09214   1.11690   1.14523
 Alpha virt. eigenvalues --    1.15800   1.17531   1.17618   1.19125   1.20035
 Alpha virt. eigenvalues --    1.21974   1.23433   1.24714   1.25821   1.28993
 Alpha virt. eigenvalues --    1.29573   1.31992   1.34180   1.38295   1.42263
 Alpha virt. eigenvalues --    1.45711   1.46538   1.48788   1.50531   1.51326
 Alpha virt. eigenvalues --    1.54239   1.55590   1.56206   1.57949   1.60102
 Alpha virt. eigenvalues --    1.60722   1.61796   1.63118   1.66082   1.66429
 Alpha virt. eigenvalues --    1.68587   1.70263   1.72785   1.75388   1.75964
 Alpha virt. eigenvalues --    1.77407   1.78114   1.78893   1.79948   1.83117
 Alpha virt. eigenvalues --    1.83914   1.84569   1.85503   1.87962   1.91349
 Alpha virt. eigenvalues --    1.92316   1.96095   1.97357   1.99585   2.00112
 Alpha virt. eigenvalues --    2.01958   2.06807   2.10127   2.13650   2.15430
 Alpha virt. eigenvalues --    2.20130   2.23104   2.25506   2.26467   2.27916
 Alpha virt. eigenvalues --    2.28929   2.31748   2.33683   2.35125   2.38404
 Alpha virt. eigenvalues --    2.39891   2.41877   2.42882   2.44699   2.45656
 Alpha virt. eigenvalues --    2.46365   2.49808   2.51315   2.53295   2.53322
 Alpha virt. eigenvalues --    2.55429   2.57407   2.58896   2.59988   2.61619
 Alpha virt. eigenvalues --    2.63266   2.64096   2.64941   2.65754   2.68168
 Alpha virt. eigenvalues --    2.69940   2.70675   2.71552   2.73975   2.74917
 Alpha virt. eigenvalues --    2.78283   2.82374   2.86319   2.87858   2.88277
 Alpha virt. eigenvalues --    2.88722   2.90933   2.91295   2.93420   2.96261
 Alpha virt. eigenvalues --    2.97016   2.98269   2.99987   3.01275   3.02490
 Alpha virt. eigenvalues --    3.04700   3.05617   3.06670   3.07039   3.09251
 Alpha virt. eigenvalues --    3.10359   3.11179   3.13461   3.14942   3.16978
 Alpha virt. eigenvalues --    3.18942   3.20249   3.21743   3.22766   3.23794
 Alpha virt. eigenvalues --    3.25282   3.26056   3.27557   3.29025   3.31234
 Alpha virt. eigenvalues --    3.33962   3.34983   3.36547   3.38150   3.40207
 Alpha virt. eigenvalues --    3.41874   3.42733   3.42964   3.44997   3.47272
 Alpha virt. eigenvalues --    3.49694   3.51312   3.52434   3.55625   3.60965
 Alpha virt. eigenvalues --    3.61371   3.63655   3.65147   3.66599   3.69517
 Alpha virt. eigenvalues --    3.70182   3.72565   3.77632   3.79021   3.81864
 Alpha virt. eigenvalues --    3.84033   3.85423   3.87859   3.91973   3.94699
 Alpha virt. eigenvalues --    3.98191   4.01089   4.03162   4.04920   4.06509
 Alpha virt. eigenvalues --    4.10136   4.10812   4.13831   4.14583   4.17652
 Alpha virt. eigenvalues --    4.20810   4.25688   4.28268   4.32417   4.33425
 Alpha virt. eigenvalues --    4.40034   4.43008   4.45546   4.49033   4.51103
 Alpha virt. eigenvalues --    4.56799   4.57818   4.60678   4.62731   4.68939
 Alpha virt. eigenvalues --    4.69720   4.73073   4.78320   4.83799   4.90388
 Alpha virt. eigenvalues --    4.91070   4.97461   5.04093   5.07983   5.13573
 Alpha virt. eigenvalues --    5.16998   5.22769  22.11209  22.22151  22.39169
 Alpha virt. eigenvalues --   22.49923  22.64654  22.71770  22.74018  22.75155
          Condensed to atoms (all electrons):
               1          2          3          4          5          6
     1  H    0.596213   0.404053  -0.033353  -0.030168  -0.026118   0.003087
     2  C    0.404053   4.990220   0.309075   0.289088   0.386664  -0.042006
     3  C   -0.033353   0.309075   4.958212  -0.106844  -0.024197   0.015371
     4  C   -0.030168   0.289088  -0.106844   4.952997  -0.015288   0.415149
     5  H   -0.026118   0.386664  -0.024197  -0.015288   0.602804  -0.008793
     6  H    0.003087  -0.042006   0.015371   0.415149  -0.008793   0.650768
     7  C    0.014742  -0.117511   0.335634   0.291749  -0.002768  -0.053517
     8  C   -0.011086  -0.009094   0.001768   0.337819   0.003444  -0.051743
     9  H   -0.009966  -0.015488   0.384291  -0.006267   0.005071  -0.000465
    10  H    0.002687  -0.036285   0.412911   0.018821  -0.009376  -0.001013
    11  H   -0.001177   0.011547  -0.044111  -0.056740   0.002737  -0.010486
    12  H   -0.000036   0.009973  -0.003248  -0.056672  -0.000358  -0.001565
    13  C   -0.000414   0.006930  -0.025795  -0.015881   0.000140   0.002658
    14  C   -0.001361   0.000142  -0.004707  -0.049997   0.000091   0.000882
    15  H    0.004465   0.005772  -0.003269  -0.010496  -0.000316   0.000490
    16  H   -0.000080  -0.000311   0.000311   0.008705   0.000000  -0.000521
    17  C   -0.000047   0.000891  -0.002385  -0.005439   0.000013  -0.000065
    18  H    0.000069  -0.001243   0.006553  -0.001112   0.000019   0.000743
    19  H   -0.000004   0.000038   0.000003  -0.000389  -0.000000   0.000022
    20  H    0.000040   0.000055   0.000905  -0.000424   0.000011  -0.000050
               7          8          9         10         11         12
     1  H    0.014742  -0.011086  -0.009966   0.002687  -0.001177  -0.000036
     2  C   -0.117511  -0.009094  -0.015488  -0.036285   0.011547   0.009973
     3  C    0.335634   0.001768   0.384291   0.412911  -0.044111  -0.003248
     4  C    0.291749   0.337819  -0.006267   0.018821  -0.056740  -0.056672
     5  H   -0.002768   0.003444   0.005071  -0.009376   0.002737  -0.000358
     6  H   -0.053517  -0.051743  -0.000465  -0.001013  -0.010486  -0.001565
     7  C    4.963092  -0.023837  -0.018516  -0.039830   0.418071  -0.004165
     8  C   -0.023837   4.996195   0.002003  -0.000528   0.008231   0.400027
     9  H   -0.018516   0.002003   0.598113  -0.031951   0.008225   0.000359
    10  H   -0.039830  -0.000528  -0.031951   0.600295  -0.011074   0.000029
    11  H    0.418071   0.008231   0.008225  -0.011074   0.660035   0.000362
    12  H   -0.004165   0.400027   0.000359   0.000029   0.000362   0.590871
    13  C    0.301229  -0.017266  -0.008818   0.004170  -0.051655   0.007108
    14  C    0.001203   0.600960   0.001829  -0.000156  -0.000156  -0.032324
    15  H    0.000301  -0.048218   0.000140   0.000036  -0.000057   0.007595
    16  H   -0.000447  -0.039339  -0.000052   0.000002   0.000021  -0.010936
    17  C   -0.045849  -0.000743   0.002482  -0.000078   0.000591   0.002042
    18  H   -0.050312  -0.000885   0.000016  -0.000320  -0.002961  -0.000190
    19  H    0.009141   0.000075  -0.000153   0.000007  -0.000460   0.000071
    20  H   -0.008658  -0.000396   0.002514  -0.000524   0.000391   0.000002
              13         14         15         16         17         18
     1  H   -0.000414  -0.001361   0.004465  -0.000080  -0.000047   0.000069
     2  C    0.006930   0.000142   0.005772  -0.000311   0.000891  -0.001243
     3  C   -0.025795  -0.004707  -0.003269   0.000311  -0.002385   0.006553
     4  C   -0.015881  -0.049997  -0.010496   0.008705  -0.005439  -0.001112
     5  H    0.000140   0.000091  -0.000316   0.000000   0.000013   0.000019
     6  H    0.002658   0.000882   0.000490  -0.000521  -0.000065   0.000743
     7  C    0.301229   0.001203   0.000301  -0.000447  -0.045849  -0.050312
     8  C   -0.017266   0.600960  -0.048218  -0.039339  -0.000743  -0.000885
     9  H   -0.008818   0.001829   0.000140  -0.000052   0.002482   0.000016
    10  H    0.004170  -0.000156   0.000036   0.000002  -0.000078  -0.000320
    11  H   -0.051655  -0.000156  -0.000057   0.000021   0.000591  -0.002961
    12  H    0.007108  -0.032324   0.007595  -0.010936   0.002042  -0.000190
    13  C    5.025816   0.004546   0.000009  -0.000076   0.617363   0.400388
    14  C    0.004546   4.909232   0.413328   0.412518   0.002452   0.000209
    15  H    0.000009   0.413328   0.567071  -0.035558  -0.000013   0.000003
    16  H   -0.000076   0.412518  -0.035558   0.556466   0.000058   0.000000
    17  C    0.617363   0.002452  -0.000013   0.000058   4.879965  -0.030764
    18  H    0.400388   0.000209   0.000003   0.000000  -0.030764   0.583202
    19  H   -0.041646   0.000003   0.000002  -0.000003   0.413810  -0.010545
    20  H   -0.044578  -0.000098  -0.000011   0.000006   0.413204   0.007360
              19         20
     1  H   -0.000004   0.000040
     2  C    0.000038   0.000055
     3  C    0.000003   0.000905
     4  C   -0.000389  -0.000424
     5  H   -0.000000   0.000011
     6  H    0.000022  -0.000050
     7  C    0.009141  -0.008658
     8  C    0.000075  -0.000396
     9  H   -0.000153   0.002514
    10  H    0.000007  -0.000524
    11  H   -0.000460   0.000391
    12  H    0.000071   0.000002
    13  C   -0.041646  -0.044578
    14  C    0.000003  -0.000098
    15  H    0.000002  -0.000011
    16  H   -0.000003   0.000006
    17  C    0.413810   0.413204
    18  H   -0.010545   0.007360
    19  H    0.555960  -0.035032
    20  H   -0.035032   0.560687
 Mulliken charges:
               1
     1  H    0.088453
     2  C   -0.192508
     3  C   -0.177123
     4  C    0.041389
     5  H    0.086221
     6  H    0.081055
     7  C    0.030246
     8  C   -0.147386
     9  H    0.086635
    10  H    0.092176
    11  H    0.068667
    12  H    0.091056
    13  C   -0.164227
    14  C   -0.258594
    15  H    0.098725
    16  H    0.109236
    17  C   -0.247488
    18  H    0.099772
    19  H    0.109099
    20  H    0.104596
 Sum of Mulliken charges =  -0.00000
 Mulliken charges with hydrogens summed into heavy atoms:
               1
     2  C   -0.017834
     3  C    0.001688
     4  C    0.122445
     7  C    0.098913
     8  C   -0.056330
    13  C   -0.064455
    14  C   -0.050632
    17  C   -0.033794
 Electronic spatial extent (au):  <R**2>=           2377.0538
 Charge=             -0.0000 electrons
 Dipole moment (field-independent basis, Debye):
    X=             -0.3252    Y=             -0.3261    Z=              0.2930  Tot=              0.5459
 Quadrupole moment (field-independent basis, Debye-Ang):
   XX=            -52.4328   YY=            -50.6903   ZZ=            -49.8394
   XY=             -0.1466   XZ=             -2.4403   YZ=              0.9127
 Traceless Quadrupole moment (field-independent basis, Debye-Ang):
   XX=             -1.4453   YY=              0.2972   ZZ=              1.1481
   XY=             -0.1466   XZ=             -2.4403   YZ=              0.9127
 Octapole moment (field-independent basis, Debye-Ang**2):
  XXX=           -118.2243  YYY=           -222.5828  ZZZ=           -285.2215  XYY=            -39.9725
  XXY=            -79.0850  XXZ=            -96.2454  XZZ=            -51.1346  YZZ=            -68.9702
  YYZ=            -87.1531  XYZ=             -0.8196
 Hexadecapole moment (field-independent basis, Debye-Ang**3):
 XXXX=           -648.6511 YYYY=          -1100.5686 ZZZZ=          -1624.9590 XXXY=           -182.7572
 XXXZ=           -367.9941 YYYX=           -193.1134 YYYZ=           -385.9658 ZZZX=           -420.2040
 ZZZY=           -386.5747 XXYY=           -307.1832 XXZZ=           -396.8344 YYZZ=           -412.2154
 XXYZ=           -127.7122 YYXZ=           -114.0114 ZZXY=            -63.9043
 N-N= 3.603732441530D+02 E-N=-1.443432798074D+03  KE= 3.103866814048D+02
 1\1\GINC-BHC0105\SP\RB3LYP\def2TZVP\C8H12\DHANAWAY\10-Jun-2022\0\\# sp
  B3LYP/Def2TZVP NoSymm\\int_initalOpt_zmat_AlignedSp\\0,1\H\C,1,1.0884
 199\C,2,1.54700262,1,117.33076627\C,2,1.55023924,1,117.70468981,3,105.
 16846462,0\H,2,1.09046513,1,108.22625425,3,-127.89939623,0\H,4,1.09390
 611,2,114.97586558,1,106.94680589,0\C,3,1.54464024,2,88.90092467,1,139
 .8787045,0\C,4,1.49690732,2,117.64031767,6,-129.20117985,0\H,3,1.09012
 245,2,111.25178134,7,-112.93112182,0\H,3,1.08992272,2,117.84480102,7,1
 20.45747227,0\H,7,1.09521905,3,109.26839636,2,89.01669806,0\H,8,1.0874
 8446,4,114.39828311,2,-166.73103973,0\C,7,1.49095851,3,121.87744391,11
 ,127.44076128,0\C,8,1.32765682,4,127.63946387,12,-179.23740597,0\H,14,
 1.08275886,8,122.62297133,4,-0.66025805,0\H,14,1.08259339,8,120.974481
 41,15,179.75198402,0\C,13,1.32781743,7,126.32444963,3,-6.20754116,0\H,
 13,1.0884266,7,115.22677409,17,-178.92400456,0\H,17,1.08255297,13,121.
 3526288,7,-178.97780132,0\H,17,1.08328633,13,122.02579251,19,179.73644
 528,0\\Version=ES64L-G16RevA.03\HF=-312.1168003\RMSD=6.732e-09\Dipole=
 -0.1279324,-0.1283092,0.1152929\Quadrupole=-1.07455,0.2209703,0.853579
 8,-0.109027,-1.8142862,0.67858\PG=C01 [X(C8H12)]\\@


 FAULTILY FAULTLESS, ICILY REGULAR, SPLENDIDLY NULL...
           MAUDE BY TENNYSON
 Job cpu time:       0 days  0 hours 12 minutes 25.0 seconds.
 Elapsed time:       0 days  0 hours  1 minutes  2.5 seconds.
 File lengths (MBytes):  RWF=     60 Int=      0 D2E=      0 Chk=     32 Scr=      1
 Normal termination of Gaussian 16 at Fri Jun 10 22:20:07 2022.
