 Entering Gaussian System, Link 0=g16
 Input=int_zmat_field_N50.gjf
 Output=int_zmat_field_N50.out
 Initial command:
 /software/gaussian/g16-a03/l1.exe "/local_scratch/11171841/Gau-15633.inp" -scrdir="/local_scratch/11171841/"
 Entering Link 1 = /software/gaussian/g16-a03/l1.exe PID=     15634.
  
 Copyright (c) 1988,1990,1992,1993,1995,1998,2003,2009,2016,
            Gaussian, Inc.  All Rights Reserved.
  
 This is part of the Gaussian(R) 16 program.  It is based on
 the Gaussian(R) 09 system (copyright 2009, Gaussian, Inc.),
 the Gaussian(R) 03 system (copyright 2003, Gaussian, Inc.),
 the Gaussian(R) 98 system (copyright 1998, Gaussian, Inc.),
 the Gaussian(R) 94 system (copyright 1995, Gaussian, Inc.),
 the Gaussian 92(TM) system (copyright 1992, Gaussian, Inc.),
 the Gaussian 90(TM) system (copyright 1990, Gaussian, Inc.),
 the Gaussian 88(TM) system (copyright 1988, Gaussian, Inc.),
 the Gaussian 86(TM) system (copyright 1986, Carnegie Mellon
 University), and the Gaussian 82(TM) system (copyright 1983,
 Carnegie Mellon University). Gaussian is a federally registered
 trademark of Gaussian, Inc.
  
 This software contains proprietary and confidential information,
 including trade secrets, belonging to Gaussian, Inc.
  
 This software is provided under written license and may be
 used, copied, transmitted, or stored only in accord with that
 written license.
  
 The following legend is applicable only to US Government
 contracts under FAR:
  
                    RESTRICTED RIGHTS LEGEND
  
 Use, reproduction and disclosure by the US Government is
 subject to restrictions as set forth in subparagraphs (a)
 and (c) of the Commercial Computer Software - Restricted
 Rights clause in FAR 52.227-19.
  
 Gaussian, Inc.
 340 Quinnipiac St., Bldg. 40, Wallingford CT 06492
  
  
 ---------------------------------------------------------------
 Warning -- This program may not be used in any manner that
 competes with the business of Gaussian, Inc. or will provide
 assistance to any competitor of Gaussian, Inc.  The licensee
 of this program is prohibited from giving any competitor of
 Gaussian, Inc. access to this program.  By using this program,
 the user acknowledges that Gaussian, Inc. is engaged in the
 business of creating and licensing software in the field of
 computational chemistry and represents and warrants to the
 licensee that it is not a competitor of Gaussian, Inc. and that
 it will not use this program in any manner prohibited above.
 ---------------------------------------------------------------
  

 Cite this work as:
 Gaussian 16, Revision A.03,
 M. J. Frisch, G. W. Trucks, H. B. Schlegel, G. E. Scuseria, 
 M. A. Robb, J. R. Cheeseman, G. Scalmani, V. Barone, 
 G. A. Petersson, H. Nakatsuji, X. Li, M. Caricato, A. V. Marenich, 
 J. Bloino, B. G. Janesko, R. Gomperts, B. Mennucci, H. P. Hratchian, 
 J. V. Ortiz, A. F. Izmaylov, J. L. Sonnenberg, D. Williams-Young, 
 F. Ding, F. Lipparini, F. Egidi, J. Goings, B. Peng, A. Petrone, 
 T. Henderson, D. Ranasinghe, V. G. Zakrzewski, J. Gao, N. Rega, 
 G. Zheng, W. Liang, M. Hada, M. Ehara, K. Toyota, R. Fukuda, 
 J. Hasegawa, M. Ishida, T. Nakajima, Y. Honda, O. Kitao, H. Nakai, 
 T. Vreven, K. Throssell, J. A. Montgomery, Jr., J. E. Peralta, 
 F. Ogliaro, M. J. Bearpark, J. J. Heyd, E. N. Brothers, K. N. Kudin, 
 V. N. Staroverov, T. A. Keith, R. Kobayashi, J. Normand, 
 K. Raghavachari, A. P. Rendell, J. C. Burant, S. S. Iyengar, 
 J. Tomasi, M. Cossi, J. M. Millam, M. Klene, C. Adamo, R. Cammi, 
 J. W. Ochterski, R. L. Martin, K. Morokuma, O. Farkas, 
 J. B. Foresman, and D. J. Fox, Gaussian, Inc., Wallingford CT, 2016.
 
 ******************************************
 Gaussian 16:  ES64L-G16RevA.03 25-Dec-2016
                10-Jun-2022 
 ******************************************
 %nprocshared=12
 Will use up to   12 processors via shared memory.
 %chk=checkpoint.chk
 %mem=12GB
 ----------------------------------------------------------------------
 # Opt=(Z-matrix, MaxStep=10) B3LYP/Def2TZVP geom=allcheckpoint guess=r
 ead Field=read NoSymm freq=noraman pop=none
 ----------------------------------------------------------------------
 1/8=10,10=7,18=40,26=3,29=7,38=1/1,3;
 2/12=2,15=1,29=3,40=1/2;
 3/5=44,7=101,11=2,14=-6,25=1,30=1,71=1,74=-5,116=-2/1,2,3;
 4/5=1/1;
 5/5=2,38=6/2;
 7/29=1,30=1/1,2,3,16;
 1/8=10,10=7,18=40,26=3/3(2);
 2/15=1,29=3/2;
 99//99;
 2/15=1,29=3/2;
 3/5=44,7=101,11=2,14=-2,25=1,30=1,71=1,74=-5/1,2,3;
 4/5=5,16=3,69=1/1;
 5/5=2,38=5/2;
 7/30=1/1,2,3,16;
 1/8=10,18=40,26=3/3(-5);
 2/15=1,29=3/2;
 99/9=1/99;
 Structure from the checkpoint file:  "checkpoint.chk"
 ------------------
 int_zmat_initalOpt
 ------------------
 Charge =  0 Multiplicity = 1
 Z-Matrix found in chk file.
 N
 C,1,R2
 O,1,R3,2,A3
 C,1,R4,2,A4,3,D4,0
 C,1,R5,2,A5,3,D5,0
 C,2,R6,1,A6,3,D6,0
 H,2,R7,1,A7,6,D7,0
 H,2,R8,1,A8,6,D8,0
 H,4,R9,1,A9,2,D9,0
 H,4,R10,1,A10,9,D10,0
 H,4,R11,1,A11,9,D11,0
 H,5,R12,1,A12,2,D12,0
 H,5,R13,1,A13,12,D13,0
 H,5,R14,1,A14,12,D14,0
 H,6,R15,2,A15,1,D15,0
 H,6,R16,2,A16,15,D16,0
 H,6,R17,2,A17,15,D17,0
      Variables:
 R2=1.52301934
 R3=1.35783804
 R4=1.49754964
 R5=1.49951708
 R6=1.51433283
 R7=1.08852297
 R8=1.09410473
 R9=1.08593678
 R10=1.08592021
 R11=1.0926075
 R12=1.08437494
 R13=1.0857764
 R14=1.09238735
 R15=1.0889918
 R16=1.09088374
 R17=1.0916185
 A3=110.05307537
 A4=108.2278052
 A5=110.78761993
 A6=112.65380352
 A7=103.8812395
 A8=108.51155635
 A9=106.99681249
 A10=106.99379962
 A11=111.39723937
 A12=107.62418251
 A13=106.70547965
 A14=111.38186671
 A15=108.88574819
 A16=112.67112991
 A17=109.17598754
 D4=-119.34163575
 D5=121.48636111
 D6=-55.17266543
 D7=119.11901313
 D8=-124.97812772
 D9=178.83905869
 D10=-116.96518992
 D11=121.45405656
 D12=-64.68204963
 D13=-116.83522504
 D14=122.01682056
 D15=47.81758439
 D16=-121.38777137
 D17=119.06869689
 Recover connectivity data from disk.

 GradGradGradGradGradGradGradGradGradGradGradGradGradGradGradGradGradGrad
 Berny optimization.
 Initialization pass.
                       ----------------------------
                       !    Initial Parameters    !
                       ! (Angstroms and Degrees)  !
 ----------------------                            ----------------------
 !      Name          Value   Derivative information (Atomic Units)     !
 ------------------------------------------------------------------------
 !       R2          1.523    estimate D2E/DX2                          !
 !       R3          1.3578   estimate D2E/DX2                          !
 !       R4          1.4975   estimate D2E/DX2                          !
 !       R5          1.4995   estimate D2E/DX2                          !
 !       R6          1.5143   estimate D2E/DX2                          !
 !       R7          1.0885   estimate D2E/DX2                          !
 !       R8          1.0941   estimate D2E/DX2                          !
 !       R9          1.0859   estimate D2E/DX2                          !
 !       R10         1.0859   estimate D2E/DX2                          !
 !       R11         1.0926   estimate D2E/DX2                          !
 !       R12         1.0844   estimate D2E/DX2                          !
 !       R13         1.0858   estimate D2E/DX2                          !
 !       R14         1.0924   estimate D2E/DX2                          !
 !       R15         1.089    estimate D2E/DX2                          !
 !       R16         1.0909   estimate D2E/DX2                          !
 !       R17         1.0916   estimate D2E/DX2                          !
 !       A3        110.0531   estimate D2E/DX2                          !
 !       A4        108.2278   estimate D2E/DX2                          !
 !       A5        110.7876   estimate D2E/DX2                          !
 !       A6        112.6538   estimate D2E/DX2                          !
 !       A7        103.8812   estimate D2E/DX2                          !
 !       A8        108.5116   estimate D2E/DX2                          !
 !       A9        106.9968   estimate D2E/DX2                          !
 !       A10       106.9938   estimate D2E/DX2                          !
 !       A11       111.3972   estimate D2E/DX2                          !
 !       A12       107.6242   estimate D2E/DX2                          !
 !       A13       106.7055   estimate D2E/DX2                          !
 !       A14       111.3819   estimate D2E/DX2                          !
 !       A15       108.8857   estimate D2E/DX2                          !
 !       A16       112.6711   estimate D2E/DX2                          !
 !       A17       109.176    estimate D2E/DX2                          !
 !       D4       -119.3416   estimate D2E/DX2                          !
 !       D5        121.4864   estimate D2E/DX2                          !
 !       D6        -55.1727   estimate D2E/DX2                          !
 !       D7        119.119    estimate D2E/DX2                          !
 !       D8       -124.9781   estimate D2E/DX2                          !
 !       D9        178.8391   estimate D2E/DX2                          !
 !       D10      -116.9652   estimate D2E/DX2                          !
 !       D11       121.4541   estimate D2E/DX2                          !
 !       D12       -64.682    estimate D2E/DX2                          !
 !       D13      -116.8352   estimate D2E/DX2                          !
 !       D14       122.0168   estimate D2E/DX2                          !
 !       D15        47.8176   estimate D2E/DX2                          !
 !       D16      -121.3878   estimate D2E/DX2                          !
 !       D17       119.0687   estimate D2E/DX2                          !
 ------------------------------------------------------------------------
 Trust Radius=1.00D-01 FncErr=1.00D-07 GrdErr=1.00D-06 EigMax=2.50D+02 EigMin=1.00D-04
 Number of steps in this run=     55 maximum allowed number of steps=    100.
 GradGradGradGradGradGradGradGradGradGradGradGradGradGradGradGradGradGrad

 ---------------------------------------------------------------------------------------------------
                            Z-MATRIX (ANGSTROMS AND DEGREES)
   CD    Cent   Atom    N1       Length/X        N2       Alpha/Y        N3        Beta/Z          J
 ---------------------------------------------------------------------------------------------------
      1      1  N 
      2      2  C        1   1.523019(     1)
      3      3  O        1   1.357838(     2)      2  110.053(    17)
      4      4  C        1   1.497550(     3)      2  108.228(    18)      3 -119.342(    32)      0
      5      5  C        1   1.499517(     4)      2  110.788(    19)      3  121.486(    33)      0
      6      6  C        2   1.514333(     5)      1  112.654(    20)      3  -55.173(    34)      0
      7      7  H        2   1.088523(     6)      1  103.881(    21)      6  119.119(    35)      0
      8      8  H        2   1.094105(     7)      1  108.512(    22)      6 -124.978(    36)      0
      9      9  H        4   1.085937(     8)      1  106.997(    23)      2  178.839(    37)      0
     10     10  H        4   1.085920(     9)      1  106.994(    24)      9 -116.965(    38)      0
     11     11  H        4   1.092608(    10)      1  111.397(    25)      9  121.454(    39)      0
     12     12  H        5   1.084375(    11)      1  107.624(    26)      2  -64.682(    40)      0
     13     13  H        5   1.085776(    12)      1  106.705(    27)     12 -116.835(    41)      0
     14     14  H        5   1.092387(    13)      1  111.382(    28)     12  122.017(    42)      0
     15     15  H        6   1.088992(    14)      2  108.886(    29)      1   47.818(    43)      0
     16     16  H        6   1.090884(    15)      2  112.671(    30)     15 -121.388(    44)      0
     17     17  H        6   1.091618(    16)      2  109.176(    31)     15  119.069(    45)      0
 ---------------------------------------------------------------------------------------------------
                         Z-Matrix orientation:                         
 ---------------------------------------------------------------------
 Center     Atomic      Atomic             Coordinates (Angstroms)
 Number     Number       Type             X           Y           Z
 ---------------------------------------------------------------------
      1          7           0        0.000000    0.000000    0.000000
      2          6           0        0.000000    0.000000    1.523019
      3          8           0        1.275520    0.000000   -0.465590
      4          6           0       -0.697000    1.239928   -0.468427
      5          6           0       -0.732207   -1.195492   -0.532186
      6          6           0        0.798120   -1.147176    2.106283
      7          1           0        0.464130    0.949351    1.784167
      8          1           0       -1.037492    0.002731    1.870393
      9          1           0       -0.667260    1.229960   -1.553911
     10          1           0       -0.121380    2.084990   -0.102703
     11          1           0       -1.726887    1.279466   -0.105714
     12          1           0       -0.177786   -2.078938   -0.235521
     13          1           0       -0.715387   -1.115308   -1.614867
     14          1           0       -1.758684   -1.231918   -0.160259
     15          1           0        1.762839   -1.196908    1.603543
     16          1           0        0.289803   -2.107115    2.005492
     17          1           0        0.958243   -0.967721    3.171077
 ---------------------------------------------------------------------
                    Distance matrix (angstroms):
                    1          2          3          4          5
     1  N    0.000000
     2  C    1.523019   0.000000
     3  O    1.357838   2.362523   0.000000
     4  C    1.497550   2.447262   2.329864   0.000000
     5  C    1.499517   2.487810   2.337649   2.436509   0.000000
     6  C    2.527733   1.514333   2.856300   3.816121   3.050533
     7  H    2.073629   1.088523   2.573135   2.550851   3.375954
     8  H    2.138871   1.094105   3.287377   2.667709   2.702096
     9  H    2.091094   3.380168   2.543941   1.085937   2.632671
    10  H    2.091043   2.646675   2.535783   1.085920   3.364391
    11  H    2.151824   2.696654   3.283442   1.092608   2.701237
    12  H    2.099776   2.728746   2.546961   3.367298   1.084375
    13  H    2.088896   3.406174   2.555085   2.619504   1.085776
    14  H    2.153200   2.728372   3.288957   2.707796   1.092387
    15  H    2.666747   2.132293   2.439545   4.035101   3.284295
    16  H    2.923340   2.180986   3.393791   4.277471   2.883639
    17  H    3.451151   2.137945   3.776572   4.567224   4.077213
                    6          7          8          9         10
     6  C    0.000000
     7  H    2.147261   0.000000
     8  H    2.178853   1.777187   0.000000
     9  H    4.603817   3.535753   3.656367   0.000000
    10  H    4.021441   2.278766   3.011340   1.770612   0.000000
    11  H    4.142122   2.912247   2.451595   1.795143   1.796255
    12  H    2.702705   3.696177   3.083393   3.595350   4.166427
    13  H    4.017297   4.148194   3.674343   2.346554   3.589065
    14  H    3.417841   3.671461   2.483550   3.032213   3.699453
    15  H    1.088992   2.515094   3.058135   4.665252   4.151193
    16  H    1.090884   3.069423   2.496279   4.972061   4.710339
    17  H    1.091618   2.417195   2.572258   5.458715   4.604591
                   11         12         13         14         15
    11  H    0.000000
    12  H    3.700735   0.000000
    13  H    3.005930   1.766407   0.000000
    14  H    2.512177   1.795089   1.793864   0.000000
    15  H    4.607838   2.815343   4.062810   3.938698   0.000000
    16  H    4.471371   2.289448   3.886012   3.106887   1.777603
    17  H    4.795532   3.759026   5.072286   4.306889   1.776813
                   16         17
    16  H    0.000000
    17  H    1.761709   0.000000
 Symmetry turned off by external request.
 Stoichiometry    C4H11NO
 Framework group  C1[X(C4H11NO)]
 Deg. of freedom    45
 Full point group                 C1      NOp   1
 Rotational constants (GHZ):           4.9392680           2.7704421           2.6760214
 Standard basis: def2TZVP (5D, 7F)
 The following finite field(s) will be applied:
 An electric field of             -0.0023 -0.0000  0.0044
   252 basis functions,   394 primitive gaussians,   282 cartesian basis functions
    25 alpha electrons       25 beta electrons
       nuclear repulsion energy       274.8946381645 Hartrees.
 NAtoms=   17 NActive=   17 NUniq=   17 SFac= 1.00D+00 NAtFMM=   60 NAOKFM=F Big=F
 Integral buffers will be    131072 words long.
 Raffenetti 2 integral format.
 Two-electron integral symmetry is turned off.
 One-electron integrals computed using PRISM.
   1 Symmetry operations used in ECPInt.
 ECPInt:  NShTT=    6105 NPrTT=   17556 LenC2=    6069 LenP2D=   14640.
 LDataN:  DoStor=T MaxTD1= 6 Len=  172
 NBasis=   252 RedAO= T EigKep=  3.09D-04  NBF=   252
 NBsUse=   252 1.00D-06 EigRej= -1.00D+00 NBFU=   252
 The nuclear repulsion energy is now       275.0352046571 hartrees.
 Initial guess from the checkpoint file:  "checkpoint.chk"
 B after Tr=     0.000000   -0.000000    0.000000
         Rot=    1.000000   -0.000000   -0.000000   -0.000000 Ang=   0.00 deg.
 Requested convergence on RMS density matrix=1.00D-08 within 128 cycles.
 Requested convergence on MAX density matrix=1.00D-06.
 Requested convergence on             energy=1.00D-06.
 No special actions if energy rises.
 SCF Done:  E(RB3LYP) =  -289.049191312     A.U. after    9 cycles
            NFock=  9  Conv=0.93D-08     -V/T= 2.0051
   1 Symmetry operations used in ECPInt.
 ECPInt:  NShTT=    6105 NPrTT=   17556 LenC2=    6069 LenP2D=   14640.
 LDataN:  DoStor=T MaxTD1= 7 Len=  274
 Calling FoFJK, ICntrl=      2127 FMM=F ISym2X=0 I1Cent= 0 IOpClX= 0 NMat=1 NMatS=1 NMatT=0.
 -------------------------------------------------------------------
 Center     Atomic                   Forces (Hartrees/Bohr)
 Number     Number              X              Y              Z
 -------------------------------------------------------------------
      1        7           0.001539077    0.000044033   -0.000203142
      2        6          -0.000750155    0.000123923   -0.000604310
      3        8          -0.000935862   -0.000163278    0.001515083
      4        6           0.000234213    0.000200757   -0.000263637
      5        6           0.000215046   -0.000150320   -0.000238751
      6        6          -0.000120614   -0.000033896   -0.000018923
      7        1           0.000106302    0.000030127   -0.000013068
      8        1          -0.000395811   -0.000043973    0.000152125
      9        1           0.000051777    0.000111984    0.000063691
     10        1           0.000118454    0.000059336   -0.000176952
     11        1          -0.000266574   -0.000079250    0.000013043
     12        1           0.000122147   -0.000077524   -0.000185285
     13        1           0.000063816   -0.000130932    0.000051660
     14        1          -0.000236641    0.000075982    0.000024821
     15        1           0.000051094    0.000023569   -0.000203626
     16        1           0.000006603   -0.000082860   -0.000195509
     17        1           0.000197126    0.000092323    0.000282779
 -------------------------------------------------------------------
 Cartesian Forces:  Max     0.001539077 RMS     0.000384967
 -----------------------------------------------------------------------------------------------
                       Internal Coordinate Forces (Hartree/Bohr or radian)
  Cent   Atom   N1       Length/X         N2         Alpha/Y        N3         Beta/Z          J
 -----------------------------------------------------------------------------------------------
      1  N 
      2  C        1  -0.000601(     1)
      3  O        1  -0.001399(     2)      2  -0.002829(    17)
      4  C        1   0.000292(     3)      2   0.000843(    18)      3   0.000652(    32)     0
      5  C        1   0.000269(     4)      2   0.000790(    19)      3  -0.000708(    33)     0
      6  C        2   0.000019(     5)      1  -0.000935(    20)      3   0.000314(    34)     0
      7  H        2   0.000068(     6)      1  -0.000062(    21)      6  -0.000164(    35)     0
      8  H        2   0.000424(     7)      1   0.000039(    22)      6   0.000088(    36)     0
      9  H        4  -0.000063(     8)      1   0.000144(    23)      2   0.000007(    37)     0
     10  H        4   0.000049(     9)      1   0.000075(    24)      9   0.000417(    38)     0
     11  H        4   0.000253(    10)      1  -0.000084(    25)      9  -0.000210(    39)     0
     12  H        5   0.000075(    11)      1   0.000097(    26)      2  -0.000009(    40)     0
     13  H        5  -0.000060(    12)      1   0.000155(    27)     12   0.000237(    41)     0
     14  H        5   0.000228(    13)      1  -0.000082(    28)     12   0.000179(    42)     0
     15  H        6   0.000138(    14)      2  -0.000248(    29)      1  -0.000145(    43)     0
     16  H        6   0.000088(    15)      2  -0.000096(    30)     15   0.000357(    44)     0
     17  H        6   0.000320(    16)      2   0.000083(    31)     15  -0.000298(    45)     0
 -----------------------------------------------------------------------------------------------
 Internal  Forces:  Max     0.002828525 RMS     0.000575216

 GradGradGradGradGradGradGradGradGradGradGradGradGradGradGradGradGradGrad
 Berny optimization.
 Search for a local minimum.
 Step number   1 out of a maximum of   55
 All quantities printed in internal units (Hartrees-Bohrs-Radians)
 Second derivative matrix not updated -- first step.
 ITU=  0
     Eigenvalues ---   -0.00191   0.02478   0.03064   0.03413   0.07097
     Eigenvalues ---    0.08885   0.09024   0.09754   0.12493   0.12974
     Eigenvalues ---    0.13839   0.13967   0.17426   0.22499   0.22752
     Eigenvalues ---    0.23171   0.24311   0.24408   0.30078   0.30919
     Eigenvalues ---    0.31633   0.31757   0.32427   0.32634   0.32654
     Eigenvalues ---    0.34342   0.34513   0.34538   0.34626   0.34711
     Eigenvalues ---    0.34929   0.34981   0.35286   0.35288   0.35305
     Eigenvalues ---    0.35340   0.35471   0.37794   0.39056   0.40321
     Eigenvalues ---    0.40407   0.42497   0.53302   0.53505   0.61258
 RFO step:  Lambda=-1.95505351D-03 EMin=-1.90993279D-03
 I=     1 Eig=   -1.91D-03 Dot1=  7.31D-05
 I=     1 Stepn=  2.50D-01 RXN=   2.50D-01 EDone=F
 Mixed    1 eigenvectors in step.  Raw Step.Grad=  7.31D-05.
 RFO eigenvector is Hessian eigenvector with negative curvature.
 Taking step of  2.50D-01 in eigenvector direction(s).  Step.Grad=  1.89D-05.
 Linear search not attempted -- first point.
 Maximum step size (   0.100) exceeded in Quadratic search.
    -- Step size scaled by   0.400
 Variable       Old X    -DE/DX   Delta X   Delta X   Delta X     New X
                                 (Linear)    (Quad)   (Total)
    R2        2.87809  -0.00060   0.00000  -0.00000  -0.00000   2.87809
    R3        2.56594  -0.00140   0.00000   0.00000   0.00000   2.56594
    R4        2.82996   0.00029   0.00000  -0.00000  -0.00000   2.82996
    R5        2.83368   0.00027   0.00000   0.00000   0.00000   2.83368
    R6        2.86167   0.00002   0.00000   0.00004   0.00004   2.86171
    R7        2.05701   0.00007   0.00000  -0.00003  -0.00003   2.05698
    R8        2.06756   0.00042   0.00000   0.00002   0.00002   2.06758
    R9        2.05212  -0.00006   0.00000  -0.00000  -0.00000   2.05212
   R10        2.05209   0.00005   0.00000  -0.00000  -0.00000   2.05209
   R11        2.06473   0.00025   0.00000  -0.00000  -0.00000   2.06473
   R12        2.04917   0.00007   0.00000  -0.00000  -0.00000   2.04917
   R13        2.05182  -0.00006   0.00000   0.00000   0.00000   2.05182
   R14        2.06431   0.00023   0.00000   0.00000   0.00000   2.06431
   R15        2.05790   0.00014   0.00000  -0.00003  -0.00003   2.05787
   R16        2.06147   0.00009   0.00000   0.00005   0.00005   2.06152
   R17        2.06286   0.00032   0.00000   0.00001   0.00001   2.06287
    A3        1.92079  -0.00283   0.00000  -0.00010  -0.00010   1.92069
    A4        1.88893   0.00084   0.00000   0.00155   0.00155   1.89048
    A5        1.93361   0.00079   0.00000  -0.00149  -0.00149   1.93212
    A6        1.96618  -0.00093   0.00000   0.00041   0.00041   1.96659
    A7        1.81307  -0.00006   0.00000   0.00177   0.00177   1.81484
    A8        1.89388   0.00004   0.00000  -0.00174  -0.00174   1.89215
    A9        1.86745   0.00014   0.00000   0.00004   0.00004   1.86749
   A10        1.86739   0.00007   0.00000  -0.00000  -0.00000   1.86739
   A11        1.94425  -0.00008   0.00000  -0.00006  -0.00006   1.94419
   A12        1.87840   0.00010   0.00000   0.00001   0.00001   1.87841
   A13        1.86236   0.00015   0.00000  -0.00005  -0.00005   1.86231
   A14        1.94398  -0.00008   0.00000   0.00006   0.00006   1.94404
   A15        1.90041  -0.00025   0.00000  -0.00157  -0.00157   1.89884
   A16        1.96648  -0.00010   0.00000   0.00358   0.00358   1.97006
   A17        1.90548   0.00008   0.00000  -0.00138  -0.00138   1.90410
    D4       -2.08290   0.00065   0.00000  -0.00476  -0.00476  -2.08767
    D5        2.12034  -0.00071   0.00000  -0.00495  -0.00495   2.11538
    D6       -0.96294   0.00031   0.00000   0.09832   0.09832  -0.86462
    D7        2.07902  -0.00016   0.00000   0.00188   0.00188   2.08090
    D8       -2.18128   0.00009   0.00000   0.00270   0.00270  -2.17858
    D9        3.12133   0.00001   0.00000   0.00085   0.00085   3.12218
   D10       -2.04143   0.00042   0.00000  -0.00001  -0.00001  -2.04144
   D11        2.11977  -0.00021   0.00000  -0.00000  -0.00000   2.11977
   D12       -1.12891  -0.00001   0.00000   0.00106   0.00106  -1.12785
   D13       -2.03916   0.00024   0.00000   0.00002   0.00002  -2.03914
   D14        2.12960   0.00018   0.00000   0.00002   0.00002   2.12961
   D15        0.83457  -0.00015   0.00000   0.01556   0.01556   0.85013
   D16       -2.11862   0.00036   0.00000  -0.00007  -0.00007  -2.11869
   D17        2.07814  -0.00030   0.00000  -0.00173  -0.00173   2.07641
         Item               Value     Threshold  Converged?
 Maximum Force            0.002829     0.000450     NO 
 RMS     Force            0.000575     0.000300     NO 
 Maximum Displacement     0.098320     0.001800     NO 
 RMS     Displacement     0.014907     0.001200     NO 
 Predicted change in Energy=-3.879656D-05
 GradGradGradGradGradGradGradGradGradGradGradGradGradGradGradGradGradGrad

 ---------------------------------------------------------------------------------------------------
                            Z-MATRIX (ANGSTROMS AND DEGREES)
   CD    Cent   Atom    N1       Length/X        N2       Alpha/Y        N3        Beta/Z          J
 ---------------------------------------------------------------------------------------------------
      1      1  N 
      2      2  C        1   1.523019(     1)
      3      3  O        1   1.357838(     2)      2  110.047(    17)
      4      4  C        1   1.497549(     3)      2  108.316(    18)      3 -119.615(    32)      0
      5      5  C        1   1.499519(     4)      2  110.702(    19)      3  121.203(    33)      0
      6      6  C        2   1.514354(     5)      1  112.677(    20)      3  -49.539(    34)      0
      7      7  H        2   1.088509(     6)      1  103.983(    21)      6  119.227(    35)      0
      8      8  H        2   1.094114(     7)      1  108.412(    22)      6 -124.823(    36)      0
      9      9  H        4   1.085937(     8)      1  106.999(    23)      2  178.888(    37)      0
     10     10  H        4   1.085920(     9)      1  106.994(    24)      9 -116.966(    38)      0
     11     11  H        4   1.092607(    10)      1  111.394(    25)      9  121.454(    39)      0
     12     12  H        5   1.084375(    11)      1  107.625(    26)      2  -64.621(    40)      0
     13     13  H        5   1.085777(    12)      1  106.703(    27)     12 -116.834(    41)      0
     14     14  H        5   1.092388(    13)      1  111.385(    28)     12  122.018(    42)      0
     15     15  H        6   1.088978(    14)      2  108.796(    29)      1   48.709(    43)      0
     16     16  H        6   1.090908(    15)      2  112.876(    30)     15 -121.392(    44)      0
     17     17  H        6   1.091624(    16)      2  109.097(    31)     15  118.969(    45)      0
 ---------------------------------------------------------------------------------------------------
                         Z-Matrix orientation:                         
 ---------------------------------------------------------------------
 Center     Atomic      Atomic             Coordinates (Angstroms)
 Number     Number       Type             X           Y           Z
 ---------------------------------------------------------------------
      1          7           0        0.000000    0.000000    0.000000
      2          6           0        0.000000    0.000000    1.523019
      3          8           0        1.275568    0.000000   -0.465458
      4          6           0       -0.702540    1.235961   -0.470627
      5          6           0       -0.726686   -1.199781   -0.530103
      6          6           0        0.906733   -1.063126    2.106857
      7          1           0        0.366670    0.990569    1.786035
      8          1           0       -1.033085   -0.101975    1.868594
      9          1           0       -0.672705    1.224274   -1.556091
     10          1           0       -0.130753    2.084238   -0.106333
     11          1           0       -1.732610    1.271443   -0.108017
     12          1           0       -0.168259   -2.080154   -0.231824
     13          1           0       -0.710102   -1.121421   -1.612921
     14          1           0       -1.753030   -1.240282   -0.158230
     15          1           0        1.876360   -1.006341    1.614441
     16          1           0        0.505434   -2.071279    1.994306
     17          1           0        1.035928   -0.875383    3.174427
 ---------------------------------------------------------------------
                    Distance matrix (angstroms):
                    1          2          3          4          5
     1  N    0.000000
     2  C    1.523019   0.000000
     3  O    1.357838   2.362439   0.000000
     4  C    1.497549   2.448630   2.332496   0.000000
     5  C    1.499519   2.486535   2.335096   2.436587   0.000000
     6  C    2.528092   1.514354   2.807683   3.810379   3.104883
     7  H    2.074992   1.088509   2.622316   2.509173   3.370097
     8  H    2.137594   1.094114   3.284520   2.715012   2.655712
     9  H    2.091124   3.381168   2.546389   1.085937   2.632794
    10  H    2.091040   2.648761   2.539834   1.085920   3.364445
    11  H    2.151783   2.697922   3.285341   1.092607   2.701293
    12  H    2.099784   2.726688   2.542884   3.367358   1.084375
    13  H    2.088862   3.405283   2.552869   2.619569   1.085777
    14  H    2.153242   2.727272   3.287110   2.707933   1.092388
    15  H    2.672053   2.131151   2.387395   4.003267   3.378215
    16  H    2.919404   2.183522   3.306621   4.298015   2.941135
    17  H    3.452018   2.136958   3.751331   4.557024   4.115287
                    6          7          8          9         10
     6  C    0.000000
     7  H    2.147617   0.000000
     8  H    2.177952   1.777578   0.000000
     9  H    4.598262   3.507809   3.690160   0.000000
    10  H    3.985033   2.241561   3.081245   1.770606   0.000000
    11  H    4.161972   2.841355   2.506512   1.795144   1.796270
    12  H    2.767560   3.713118   3.012121   3.595468   4.166451
    13  H    4.056391   4.144013   3.642051   2.346681   3.589108
    14  H    3.498049   3.640054   2.433533   3.032351   3.699582
    15  H    1.088978   2.509234   3.057341   4.639574   4.067093
    16  H    1.090908   3.072059   2.502199   4.985379   4.699547
    17  H    1.091624   2.420190   2.565964   5.450302   4.569890
                   11         12         13         14         15
    11  H    0.000000
    12  H    3.700773   0.000000
    13  H    3.006004   1.766407   0.000000
    14  H    2.512309   1.795077   1.793865   0.000000
    15  H    4.602154   2.956727   4.137499   4.045932   0.000000
    16  H    4.538985   2.325854   3.923245   3.228719   1.777028
    17  H    4.800844   3.808423   5.101751   4.360968   1.776804
                   16         17
    16  H    0.000000
    17  H    1.761895   0.000000
 Symmetry turned off by external request.
 Stoichiometry    C4H11NO
 Framework group  C1[X(C4H11NO)]
 Deg. of freedom    45
 Full point group                 C1      NOp   1
 Rotational constants (GHZ):           4.9428733           2.7686045           2.6757041
 Standard basis: def2TZVP (5D, 7F)
 The following finite field(s) will be applied:
 An electric field of             -0.0023 -0.0000  0.0044
   252 basis functions,   394 primitive gaussians,   282 cartesian basis functions
    25 alpha electrons       25 beta electrons
       nuclear repulsion energy       274.8924496187 Hartrees.
 NAtoms=   17 NActive=   17 NUniq=   17 SFac= 1.00D+00 NAtFMM=   60 NAOKFM=F Big=F
 Integral buffers will be    131072 words long.
 Raffenetti 2 integral format.
 Two-electron integral symmetry is turned off.
 One-electron integrals computed using PRISM.
   1 Symmetry operations used in ECPInt.
 ECPInt:  NShTT=    6105 NPrTT=   17556 LenC2=    6069 LenP2D=   14637.
 LDataN:  DoStor=T MaxTD1= 6 Len=  172
 NBasis=   252 RedAO= T EigKep=  3.06D-04  NBF=   252
 NBsUse=   252 1.00D-06 EigRej= -1.00D+00 NBFU=   252
 The nuclear repulsion energy is now       275.0287736128 hartrees.
 Initial guess from the checkpoint file:  "checkpoint.chk"
 B after Tr=     0.018149    0.014842   -0.001481
         Rot=    0.999886    0.005005   -0.006445   -0.012673 Ang=   1.73 deg.
 ExpMin= 9.52D-02 ExpMax= 2.70D+04 ExpMxC= 9.22D+02 IAcc=2 IRadAn=         4 AccDes= 0.00D+00
 Harris functional with IExCor=  402 and IRadAn=       4 diagonalized for initial guess.
 HarFok:  IExCor=  402 AccDes= 0.00D+00 IRadAn=         4 IDoV= 1 UseB2=F ITyADJ=14
 ICtDFT=  3500011 ScaDFX=  1.000000  1.000000  1.000000  1.000000
 FoFCou: FMM=F IPFlag=           0 FMFlag=      100000 FMFlg1=           0
         NFxFlg=           0 DoJE=T BraDBF=F KetDBF=T FulRan=T
         wScrn=  0.000000 ICntrl=       500 IOpCl=  0 I1Cent=   200000004 NGrid=           0
         NMat0=    1 NMatS0=      1 NMatT0=    0 NMatD0=    1 NMtDS0=    0 NMtDT0=    0
 Symmetry not used in FoFCou.
 Requested convergence on RMS density matrix=1.00D-08 within 128 cycles.
 Requested convergence on MAX density matrix=1.00D-06.
 Requested convergence on             energy=1.00D-06.
 No special actions if energy rises.
 Integral accuracy reduced to 1.0D-05 until final iterations.
 Initial convergence to 1.0D-05 achieved.  Increase integral accuracy.
 SCF Done:  E(RB3LYP) =  -289.049026005     A.U. after   10 cycles
            NFock= 10  Conv=0.54D-08     -V/T= 2.0051
   1 Symmetry operations used in ECPInt.
 ECPInt:  NShTT=    6105 NPrTT=   17556 LenC2=    6069 LenP2D=   14637.
 LDataN:  DoStor=T MaxTD1= 7 Len=  274
 Calling FoFJK, ICntrl=      2127 FMM=F ISym2X=0 I1Cent= 0 IOpClX= 0 NMat=1 NMatS=1 NMatT=0.
 -------------------------------------------------------------------
 Center     Atomic                   Forces (Hartrees/Bohr)
 Number     Number              X              Y              Z
 -------------------------------------------------------------------
      1        7           0.002347106   -0.001328755   -0.000572222
      2        6          -0.001129623    0.000026052   -0.000024863
      3        8          -0.001212227    0.001290340    0.000668809
      4        6           0.000388360    0.000061743   -0.000401527
      5        6          -0.000031905   -0.000138611   -0.000200979
      6        6           0.000341271    0.000099712   -0.000053289
      7        1           0.000360061   -0.000116602    0.000753738
      8        1          -0.000333536    0.000625292    0.000152531
      9        1          -0.000066021    0.000047353    0.000036521
     10        1           0.000112361    0.000049967   -0.000270271
     11        1          -0.000246738   -0.000101055    0.000134780
     12        1           0.000277149   -0.000193819    0.000143455
     13        1           0.000118440   -0.000263827    0.000038425
     14        1          -0.000220845    0.000122749   -0.000072032
     15        1          -0.000385976   -0.000333513   -0.000306486
     16        1          -0.000139931    0.000018016   -0.000579108
     17        1          -0.000177948    0.000134959    0.000552519
 -------------------------------------------------------------------
 Cartesian Forces:  Max     0.002347106 RMS     0.000555590
 -----------------------------------------------------------------------------------------------
                       Internal Coordinate Forces (Hartree/Bohr or radian)
  Cent   Atom   N1       Length/X         N2         Alpha/Y        N3         Beta/Z          J
 -----------------------------------------------------------------------------------------------
      1  N 
      2  C        1   0.000495(     1)
      3  O        1  -0.001368(     2)      2  -0.000546(    17)
      4  C        1   0.000117(     3)      2   0.001343(    18)      3   0.000428(    32)     0
      5  C        1   0.000342(     4)      2  -0.000450(    19)      3  -0.000950(    33)     0
      6  C        2  -0.000309(     5)      1  -0.001363(    20)      3  -0.003661(    34)     0
      7  H        2   0.000197(     6)      1   0.001497(    21)      6  -0.000755(    35)     0
      8  H        2   0.000305(     7)      1   0.000123(    22)      6  -0.001285(    36)     0
      9  H        4  -0.000039(     8)      1   0.000150(    23)      2   0.000602(    37)     0
     10  H        4   0.000008(     9)      1   0.000153(    24)      9   0.000564(    38)     0
     11  H        4   0.000274(    10)      1  -0.000244(    25)      9  -0.000027(    39)     0
     12  H        5   0.000340(    11)      1  -0.000285(    26)      2   0.000796(    40)     0
     13  H        5  -0.000056(    12)      1   0.000334(    27)     12   0.000463(    41)     0
     14  H        5   0.000178(    13)      1  -0.000068(    28)     12   0.000365(    42)     0
     15  H        6  -0.000222(    14)      2  -0.000094(    29)      1   0.000109(    43)     0
     16  H        6   0.000095(    15)      2  -0.000798(    30)     15   0.000842(    44)     0
     17  H        6   0.000542(    16)      2  -0.000362(    31)     15   0.000338(    45)     0
 -----------------------------------------------------------------------------------------------
 Internal  Forces:  Max     0.003660576 RMS     0.000813134

 GradGradGradGradGradGradGradGradGradGradGradGradGradGradGradGradGradGrad
 Berny optimization.
 Search for a local minimum.
 Step number   2 out of a maximum of   55
 All quantities printed in internal units (Hartrees-Bohrs-Radians)
 Update second derivatives using D2CorN and points    2    1
 ITU=  0  0
     Eigenvalues ---    0.02387   0.02931   0.03199   0.04064   0.07100
     Eigenvalues ---    0.08891   0.09030   0.09810   0.12525   0.12979
     Eigenvalues ---    0.13841   0.13967   0.17434   0.22513   0.22762
     Eigenvalues ---    0.23172   0.24336   0.24442   0.30089   0.30920
     Eigenvalues ---    0.31633   0.31757   0.32427   0.32634   0.32657
     Eigenvalues ---    0.34343   0.34513   0.34538   0.34627   0.34711
     Eigenvalues ---    0.34930   0.34981   0.35286   0.35288   0.35305
     Eigenvalues ---    0.35345   0.35471   0.37799   0.39056   0.40321
     Eigenvalues ---    0.40407   0.42501   0.53303   0.53507   0.61264
 RFO step:  Lambda=-5.61396604D-05 EMin= 2.38740178D-02
 Quartic linear search produced a step of -0.92573.
 Variable       Old X    -DE/DX   Delta X   Delta X   Delta X     New X
                                 (Linear)    (Quad)   (Total)
    R2        2.87809   0.00050   0.00000  -0.00179  -0.00179   2.87630
    R3        2.56594  -0.00137  -0.00000  -0.00258  -0.00258   2.56336
    R4        2.82996   0.00012   0.00000   0.00089   0.00089   2.83085
    R5        2.83368   0.00034  -0.00000   0.00086   0.00086   2.83454
    R6        2.86171  -0.00031  -0.00004  -0.00000  -0.00004   2.86168
    R7        2.05698   0.00020   0.00003   0.00022   0.00024   2.05723
    R8        2.06758   0.00030  -0.00002   0.00121   0.00120   2.06877
    R9        2.05212  -0.00004   0.00000  -0.00017  -0.00017   2.05195
   R10        2.05209   0.00001   0.00000   0.00013   0.00013   2.05222
   R11        2.06473   0.00027   0.00000   0.00074   0.00074   2.06547
   R12        2.04917   0.00034   0.00000   0.00025   0.00025   2.04942
   R13        2.05182  -0.00006  -0.00000  -0.00016  -0.00016   2.05166
   R14        2.06431   0.00018  -0.00000   0.00066   0.00066   2.06497
   R15        2.05787  -0.00022   0.00002   0.00034   0.00037   2.05824
   R16        2.06152   0.00009  -0.00004   0.00025   0.00021   2.06173
   R17        2.06287   0.00054  -0.00001   0.00096   0.00095   2.06382
    A3        1.92069  -0.00055   0.00010  -0.01070  -0.01061   1.91008
    A4        1.89048   0.00134  -0.00143   0.00464   0.00320   1.89368
    A5        1.93212  -0.00045   0.00138   0.00387   0.00524   1.93736
    A6        1.96659  -0.00136  -0.00038  -0.00371  -0.00409   1.96250
    A7        1.81484   0.00150  -0.00164  -0.00007  -0.00171   1.81313
    A8        1.89215   0.00012   0.00161   0.00208   0.00368   1.89583
    A9        1.86749   0.00015  -0.00004   0.00018   0.00014   1.86763
   A10        1.86739   0.00015   0.00000   0.00052   0.00053   1.86792
   A11        1.94419  -0.00024   0.00005  -0.00003   0.00002   1.94421
   A12        1.87841  -0.00029  -0.00001   0.00043   0.00042   1.87883
   A13        1.86231   0.00033   0.00004   0.00026   0.00030   1.86262
   A14        1.94404  -0.00007  -0.00005   0.00007   0.00002   1.94406
   A15        1.89884  -0.00009   0.00145  -0.00209  -0.00063   1.89821
   A16        1.97006  -0.00080  -0.00331  -0.00063  -0.00395   1.96612
   A17        1.90410  -0.00036   0.00128   0.00189   0.00317   1.90726
    D4       -2.08767   0.00043   0.00441   0.00353   0.00794  -2.07973
    D5        2.11538  -0.00095   0.00459  -0.00487  -0.00028   2.11510
    D6       -0.86462  -0.00366  -0.09102  -0.00233  -0.09335  -0.95797
    D7        2.08090  -0.00075  -0.00174  -0.00271  -0.00446   2.07644
    D8       -2.17858  -0.00128  -0.00250  -0.00078  -0.00328  -2.18186
    D9        3.12218   0.00060  -0.00078  -0.00532  -0.00610   3.11608
   D10       -2.04144   0.00056   0.00001   0.00151   0.00151  -2.03992
   D11        2.11977  -0.00003   0.00000  -0.00042  -0.00042   2.11935
   D12       -1.12785   0.00080  -0.00098   0.00614   0.00516  -1.12269
   D13       -2.03914   0.00046  -0.00002   0.00165   0.00163  -2.03751
   D14        2.12961   0.00037  -0.00001   0.00183   0.00182   2.13143
   D15        0.85013   0.00011  -0.01440  -0.00727  -0.02168   0.82846
   D16       -2.11869   0.00084   0.00007   0.00340   0.00346  -2.11523
   D17        2.07641   0.00034   0.00160   0.00007   0.00168   2.07809
         Item               Value     Threshold  Converged?
 Maximum Force            0.003661     0.000450     NO 
 RMS     Force            0.000813     0.000300     NO 
 Maximum Displacement     0.093347     0.001800     NO 
 RMS     Displacement     0.014598     0.001200     NO 
 Predicted change in Energy=-1.550648D-05
 GradGradGradGradGradGradGradGradGradGradGradGradGradGradGradGradGradGrad

 ---------------------------------------------------------------------------------------------------
                            Z-MATRIX (ANGSTROMS AND DEGREES)
   CD    Cent   Atom    N1       Length/X        N2       Alpha/Y        N3        Beta/Z          J
 ---------------------------------------------------------------------------------------------------
      1      1  N 
      2      2  C        1   1.522073(     1)
      3      3  O        1   1.356474(     2)      2  109.439(    17)
      4      4  C        1   1.498019(     3)      2  108.500(    18)      3 -119.159(    32)      0
      5      5  C        1   1.499973(     4)      2  111.003(    19)      3  121.187(    33)      0
      6      6  C        2   1.514334(     5)      1  112.443(    20)      3  -54.888(    34)      0
      7      7  H        2   1.088637(     6)      1  103.885(    21)      6  118.971(    35)      0
      8      8  H        2   1.094746(     7)      1  108.623(    22)      6 -125.011(    36)      0
      9      9  H        4   1.085846(     8)      1  107.007(    23)      2  178.538(    37)      0
     10     10  H        4   1.085990(     9)      1  107.024(    24)      9 -116.879(    38)      0
     11     11  H        4   1.093000(    10)      1  111.395(    25)      9  121.430(    39)      0
     12     12  H        5   1.084507(    11)      1  107.649(    26)      2  -64.326(    40)      0
     13     13  H        5   1.085689(    12)      1  106.720(    27)     12 -116.741(    41)      0
     14     14  H        5   1.092737(    13)      1  111.386(    28)     12  122.122(    42)      0
     15     15  H        6   1.089172(    14)      2  108.759(    29)      1   47.467(    43)      0
     16     16  H        6   1.091019(    15)      2  112.650(    30)     15 -121.194(    44)      0
     17     17  H        6   1.092126(    16)      2  109.278(    31)     15  119.066(    45)      0
 ---------------------------------------------------------------------------------------------------
                         Z-Matrix orientation:                         
 ---------------------------------------------------------------------
 Center     Atomic      Atomic             Coordinates (Angstroms)
 Number     Number       Type             X           Y           Z
 ---------------------------------------------------------------------
      1          7           0        0.000000    0.000000    0.000000
      2          6           0        0.000000    0.000000    1.522073
      3          8           0        1.279147    0.000000   -0.451447
      4          6           0       -0.692179    1.240569   -0.475329
      5          6           0       -0.725121   -1.197954   -0.537610
      6          6           0        0.805045   -1.144942    2.100188
      7          1           0        0.461894    0.950547    1.783311
      8          1           0       -1.037423   -0.001829    1.871671
      9          1           0       -0.655313    1.228867   -1.560485
     10          1           0       -0.117187    2.085773   -0.108739
     11          1           0       -1.724896    1.282065   -0.119769
     12          1           0       -0.170347   -2.080159   -0.237451
     13          1           0       -0.699728   -1.118628   -1.620100
     14          1           0       -1.754931   -1.236628   -0.174195
     15          1           0        1.766013   -1.190383    1.589530
     16          1           0        0.299712   -2.106652    1.999809
     17          1           0        0.972988   -0.966382    3.164448
 ---------------------------------------------------------------------
                    Distance matrix (angstroms):
                    1          2          3          4          5
     1  N    0.000000
     2  C    1.522073   0.000000
     3  O    1.356474   2.351807   0.000000
     4  C    1.498019   2.451068   2.329315   0.000000
     5  C    1.499973   2.490620   2.336580   2.439540   0.000000
     6  C    2.523842   1.514334   2.836636   3.816494   3.049950
     7  H    2.072941   1.088637   2.562340   2.552930   3.378126
     8  H    2.139954   1.094746   3.280759   2.677901   2.707930
     9  H    2.091570   3.382560   2.546019   1.085846   2.634503
    10  H    2.091890   2.650232   2.533307   1.085990   3.366953
    11  H    2.152511   2.704552   3.282983   1.093000   2.706406
    12  H    2.100586   2.729836   2.544383   3.369885   1.084507
    13  H    2.089419   3.407961   2.555978   2.622283   1.085689
    14  H    2.153921   2.736121   3.288122   2.712310   1.092737
    15  H    2.657522   2.130813   2.412393   4.026894   3.275749
    16  H    2.920111   2.180835   3.377267   4.279491   2.883489
    17  H    3.448815   2.139625   3.755306   4.570709   4.079513
                    6          7          8          9         10
     6  C    0.000000
     7  H    2.146914   0.000000
     8  H    2.180280   1.778421   0.000000
     9  H    4.600885   3.536465   3.666104   0.000000
    10  H    4.020869   2.281211   3.021083   1.769586   0.000000
    11  H    4.149600   2.917819   2.467152   1.795132   1.797442
    12  H    2.700106   3.697078   3.085397   3.596562   4.168258
    13  H    4.013175   4.148982   3.681541   2.348672   3.590509
    14  H    3.425595   3.678298   2.495018   3.034736   3.704705
    15  H    1.089172   2.514331   3.058026   4.651687   4.142917
    16  H    1.091019   3.069143   2.496924   4.971263   4.711285
    17  H    1.092126   2.417307   2.577477   5.458523   4.606287
                   11         12         13         14         15
    11  H    0.000000
    12  H    3.706079   0.000000
    13  H    3.010862   1.765361   0.000000
    14  H    2.519460   1.796232   1.793883   0.000000
    15  H    4.606642   2.806965   4.048055   3.938263   0.000000
    16  H    4.480519   2.286261   3.883144   3.115252   1.777053
    17  H    4.808344   3.757743   5.070804   4.319851   1.777479
                   16         17
    16  H    0.000000
    17  H    1.763490   0.000000
 Symmetry turned off by external request.
 Stoichiometry    C4H11NO
 Framework group  C1[X(C4H11NO)]
 Deg. of freedom    45
 Full point group                 C1      NOp   1
 Rotational constants (GHZ):           4.9490691           2.7778793           2.6772042
 Standard basis: def2TZVP (5D, 7F)
 The following finite field(s) will be applied:
 An electric field of             -0.0023 -0.0000  0.0044
   252 basis functions,   394 primitive gaussians,   282 cartesian basis functions
    25 alpha electrons       25 beta electrons
       nuclear repulsion energy       275.0270361824 Hartrees.
 NAtoms=   17 NActive=   17 NUniq=   17 SFac= 1.00D+00 NAtFMM=   60 NAOKFM=F Big=F
 Integral buffers will be    131072 words long.
 Raffenetti 2 integral format.
 Two-electron integral symmetry is turned off.
 One-electron integrals computed using PRISM.
   1 Symmetry operations used in ECPInt.
 ECPInt:  NShTT=    6105 NPrTT=   17556 LenC2=    6069 LenP2D=   14641.
 LDataN:  DoStor=T MaxTD1= 6 Len=  172
 NBasis=   252 RedAO= T EigKep=  3.08D-04  NBF=   252
 NBsUse=   252 1.00D-06 EigRej= -1.00D+00 NBFU=   252
 The nuclear repulsion energy is now       275.1660233260 hartrees.
 Lowest energy guess from the checkpoint file:  "checkpoint.chk"
 B after Tr=     0.009060   -0.000019   -0.003120
         Rot=    0.999999   -0.000178    0.001264   -0.001036 Ang=  -0.19 deg.
 B after Tr=    -0.009474   -0.014502   -0.002095
         Rot=    0.999889   -0.005161    0.007674    0.011654 Ang=  -1.70 deg.
 Requested convergence on RMS density matrix=1.00D-08 within 128 cycles.
 Requested convergence on MAX density matrix=1.00D-06.
 Requested convergence on             energy=1.00D-06.
 No special actions if energy rises.
 Integral accuracy reduced to 1.0D-05 until final iterations.
 Initial convergence to 1.0D-05 achieved.  Increase integral accuracy.
 SCF Done:  E(RB3LYP) =  -289.049213715     A.U. after    9 cycles
            NFock=  9  Conv=0.87D-08     -V/T= 2.0051
   1 Symmetry operations used in ECPInt.
 ECPInt:  NShTT=    6105 NPrTT=   17556 LenC2=    6069 LenP2D=   14641.
 LDataN:  DoStor=T MaxTD1= 7 Len=  274
 Calling FoFJK, ICntrl=      2127 FMM=F ISym2X=0 I1Cent= 0 IOpClX= 0 NMat=1 NMatS=1 NMatT=0.
 -------------------------------------------------------------------
 Center     Atomic                   Forces (Hartrees/Bohr)
 Number     Number              X              Y              Z
 -------------------------------------------------------------------
      1        7           0.002246219    0.000049701    0.000264423
      2        6          -0.001952988    0.000066323   -0.000158204
      3        8           0.000223521    0.000101161   -0.000423590
      4        6          -0.000121850   -0.000150043    0.000038572
      5        6          -0.000186855    0.000110745    0.000005393
      6        6           0.000008734   -0.000211466    0.000313435
      7        1          -0.000072129   -0.000018406   -0.000095871
      8        1          -0.000134933   -0.000033979    0.000159363
      9        1           0.000030129   -0.000026475   -0.000022310
     10        1           0.000058370   -0.000082094    0.000007926
     11        1          -0.000027095   -0.000047177   -0.000001694
     12        1           0.000016173    0.000078538   -0.000025326
     13        1           0.000045848    0.000038531   -0.000016600
     14        1          -0.000018077    0.000030186   -0.000012844
     15        1          -0.000054482    0.000101496   -0.000033964
     16        1          -0.000034035   -0.000010066    0.000042046
     17        1          -0.000026550    0.000003026   -0.000040754
 -------------------------------------------------------------------
 Cartesian Forces:  Max     0.002246219 RMS     0.000432438
 -----------------------------------------------------------------------------------------------
                       Internal Coordinate Forces (Hartree/Bohr or radian)
  Cent   Atom   N1       Length/X         N2         Alpha/Y        N3         Beta/Z          J
 -----------------------------------------------------------------------------------------------
      1  N 
      2  C        1   0.000186(     1)
      3  O        1   0.000352(     2)      2   0.000833(    17)
      4  C        1  -0.000232(     3)      2   0.000136(    18)      3  -0.000452(    32)     0
      5  C        1  -0.000119(     4)      2   0.000375(    19)      3   0.000633(    33)     0
      6  C        2   0.000139(     5)      1   0.000633(    20)      3  -0.000091(    34)     0
      7  H        2  -0.000070(     6)      1  -0.000168(    21)      6   0.000113(    35)     0
      8  H        2   0.000179(     7)      1   0.000223(    22)      6   0.000066(    36)     0
      9  H        4   0.000024(     8)      1  -0.000077(    23)      2  -0.000035(    37)     0
     10  H        4  -0.000030(     9)      1  -0.000190(    24)      9   0.000052(    38)     0
     11  H        4   0.000023(    10)      1  -0.000077(    25)      9  -0.000062(    39)     0
     12  H        5  -0.000063(    11)      1  -0.000091(    26)      2   0.000034(    40)     0
     13  H        5   0.000020(    12)      1  -0.000113(    27)     12   0.000039(    41)     0
     14  H        5   0.000012(    13)      1  -0.000033(    28)     12   0.000061(    42)     0
     15  H        6  -0.000036(    14)      2  -0.000233(    29)      1  -0.000037(    43)     0
     16  H        6   0.000021(    15)      2  -0.000005(    30)     15  -0.000097(    44)     0
     17  H        6  -0.000043(    16)      2  -0.000039(    31)     15   0.000024(    45)     0
 -----------------------------------------------------------------------------------------------
 Internal  Forces:  Max     0.000833229 RMS     0.000231296

 GradGradGradGradGradGradGradGradGradGradGradGradGradGradGradGradGradGrad
 Berny optimization.
 Search for a local minimum.
 Step number   3 out of a maximum of   55
 All quantities printed in internal units (Hartrees-Bohrs-Radians)
 Update second derivatives using D2CorN and points    2    1    3
 DE= -2.24D-05 DEPred=-1.55D-05 R= 1.44D+00
 TightC=F SS=  1.41D+00  RLast= 1.96D-02 DXNew= 1.6818D-01 5.8905D-02
 Trust test= 1.44D+00 RLast= 1.96D-02 DXMaxT set to 1.00D-01
 ITU=  1  0  0
     Eigenvalues ---    0.02012   0.02803   0.03149   0.04211   0.07130
     Eigenvalues ---    0.08929   0.08982   0.09866   0.12618   0.12928
     Eigenvalues ---    0.13842   0.13966   0.17671   0.22693   0.22771
     Eigenvalues ---    0.23315   0.24434   0.26687   0.30265   0.30936
     Eigenvalues ---    0.31638   0.31763   0.32448   0.32638   0.32757
     Eigenvalues ---    0.34288   0.34509   0.34537   0.34635   0.34710
     Eigenvalues ---    0.34935   0.34992   0.35287   0.35289   0.35305
     Eigenvalues ---    0.35469   0.35619   0.37815   0.39103   0.40289
     Eigenvalues ---    0.40408   0.42687   0.53219   0.54294   0.61192
 RFO step:  Lambda=-3.34674158D-06 EMin= 2.01177091D-02
 Quartic linear search produced a step of -0.19802.
 Variable       Old X    -DE/DX   Delta X   Delta X   Delta X     New X
                                 (Linear)    (Quad)   (Total)
    R2        2.87630   0.00019   0.00035   0.00004   0.00040   2.87670
    R3        2.56336   0.00035   0.00051   0.00003   0.00054   2.56391
    R4        2.83085  -0.00023  -0.00018  -0.00042  -0.00060   2.83025
    R5        2.83454  -0.00012  -0.00017  -0.00015  -0.00032   2.83422
    R6        2.86168   0.00014  -0.00000   0.00043   0.00043   2.86211
    R7        2.05723  -0.00007  -0.00004  -0.00014  -0.00018   2.05705
    R8        2.06877   0.00018  -0.00024   0.00073   0.00049   2.06926
    R9        2.05195   0.00002   0.00003   0.00002   0.00005   2.05201
   R10        2.05222  -0.00003  -0.00003  -0.00005  -0.00007   2.05215
   R11        2.06547   0.00002  -0.00015   0.00022   0.00007   2.06554
   R12        2.04942  -0.00006  -0.00005  -0.00013  -0.00017   2.04925
   R13        2.05166   0.00002   0.00003   0.00002   0.00005   2.05170
   R14        2.06497   0.00001  -0.00013   0.00018   0.00005   2.06502
   R15        2.05824  -0.00004  -0.00007   0.00002  -0.00005   2.05818
   R16        2.06173   0.00002  -0.00005   0.00010   0.00005   2.06178
   R17        2.06382  -0.00004  -0.00019   0.00008  -0.00011   2.06370
    A3        1.91008   0.00083   0.00212   0.00001   0.00213   1.91220
    A4        1.89368   0.00014  -0.00094   0.00018  -0.00076   1.89292
    A5        1.93736   0.00038  -0.00074   0.00152   0.00078   1.93814
    A6        1.96250   0.00063   0.00073   0.00122   0.00195   1.96445
    A7        1.81313  -0.00017  -0.00001  -0.00171  -0.00172   1.81141
    A8        1.89583   0.00022  -0.00039   0.00123   0.00085   1.89668
    A9        1.86763  -0.00008  -0.00004  -0.00023  -0.00027   1.86736
   A10        1.86792  -0.00019  -0.00010  -0.00060  -0.00071   1.86721
   A11        1.94421  -0.00008   0.00001   0.00001   0.00002   1.94423
   A12        1.87883  -0.00009  -0.00008  -0.00009  -0.00018   1.87865
   A13        1.86262  -0.00011  -0.00005  -0.00049  -0.00054   1.86208
   A14        1.94406  -0.00003  -0.00001   0.00011   0.00009   1.94415
   A15        1.89821  -0.00023   0.00044  -0.00140  -0.00097   1.89724
   A16        1.96612  -0.00001   0.00007   0.00022   0.00030   1.96641
   A17        1.90726  -0.00004  -0.00035   0.00031  -0.00005   1.90722
    D4       -2.07973  -0.00045  -0.00063   0.00051  -0.00012  -2.07985
    D5        2.11510   0.00063   0.00104   0.00140   0.00243   2.11754
    D6       -0.95797  -0.00009  -0.00098  -0.00188  -0.00287  -0.96084
    D7        2.07644   0.00011   0.00051  -0.00038   0.00013   2.07657
    D8       -2.18186   0.00007   0.00011  -0.00088  -0.00076  -2.18262
    D9        3.11608  -0.00003   0.00104  -0.00244  -0.00140   3.11467
   D10       -2.03992   0.00005  -0.00030   0.00074   0.00045  -2.03948
   D11        2.11935  -0.00006   0.00008   0.00008   0.00017   2.11952
   D12       -1.12269   0.00003  -0.00123   0.00047  -0.00076  -1.12345
   D13       -2.03751   0.00004  -0.00033   0.00073   0.00040  -2.03711
   D14        2.13143   0.00006  -0.00036   0.00090   0.00053   2.13196
   D15        0.82846  -0.00004   0.00121  -0.00525  -0.00404   0.82442
   D16       -2.11523  -0.00010  -0.00067   0.00048  -0.00019  -2.11541
   D17        2.07809   0.00002   0.00001  -0.00038  -0.00037   2.07771
         Item               Value     Threshold  Converged?
 Maximum Force            0.000833     0.000450     NO 
 RMS     Force            0.000231     0.000300     YES
 Maximum Displacement     0.004040     0.001800     NO 
 RMS     Displacement     0.001065     0.001200     YES
 Predicted change in Energy=-3.688678D-06
 GradGradGradGradGradGradGradGradGradGradGradGradGradGradGradGradGradGrad

 ---------------------------------------------------------------------------------------------------
                            Z-MATRIX (ANGSTROMS AND DEGREES)
   CD    Cent   Atom    N1       Length/X        N2       Alpha/Y        N3        Beta/Z          J
 ---------------------------------------------------------------------------------------------------
      1      1  N 
      2      2  C        1   1.522284(     1)
      3      3  O        1   1.356762(     2)      2  109.561(    17)
      4      4  C        1   1.497702(     3)      2  108.456(    18)      3 -119.166(    32)      0
      5      5  C        1   1.499805(     4)      2  111.047(    19)      3  121.326(    33)      0
      6      6  C        2   1.514561(     5)      1  112.555(    20)      3  -55.052(    34)      0
      7      7  H        2   1.088542(     6)      1  103.786(    21)      6  118.979(    35)      0
      8      8  H        2   1.095005(     7)      1  108.672(    22)      6 -125.055(    36)      0
      9      9  H        4   1.085875(     8)      1  106.992(    23)      2  178.458(    37)      0
     10     10  H        4   1.085952(     9)      1  106.983(    24)      9 -116.853(    38)      0
     11     11  H        4   1.093037(    10)      1  111.396(    25)      9  121.439(    39)      0
     12     12  H        5   1.084414(    11)      1  107.639(    26)      2  -64.369(    40)      0
     13     13  H        5   1.085715(    12)      1  106.689(    27)     12 -116.718(    41)      0
     14     14  H        5   1.092761(    13)      1  111.392(    28)     12  122.152(    42)      0
     15     15  H        6   1.089145(    14)      2  108.704(    29)      1   47.236(    43)      0
     16     16  H        6   1.091045(    15)      2  112.667(    30)     15 -121.204(    44)      0
     17     17  H        6   1.092065(    16)      2  109.276(    31)     15  119.044(    45)      0
 ---------------------------------------------------------------------------------------------------
                         Z-Matrix orientation:                         
 ---------------------------------------------------------------------
 Center     Atomic      Atomic             Coordinates (Angstroms)
 Number     Number       Type             X           Y           Z
 ---------------------------------------------------------------------
      1          7           0        0.000000    0.000000    0.000000
      2          6           0        0.000000    0.000000    1.522284
      3          8           0        1.278455    0.000000   -0.454262
      4          6           0       -0.692358    1.240538   -0.474147
      5          6           0       -0.727736   -1.195694   -0.538636
      6          6           0        0.801232   -1.146491    2.103214
      7          1           0        0.464654    0.949597    1.781680
      8          1           0       -1.037372    0.001937    1.872841
      9          1           0       -0.654481    1.230026   -1.559310
     10          1           0       -0.117404    2.085068   -0.106058
     11          1           0       -1.725367    1.281088   -0.119212
     12          1           0       -0.174728   -2.079219   -0.239435
     13          1           0       -0.701728   -1.115021   -1.621037
     14          1           0       -1.757753   -1.232313   -0.175524
     15          1           0        1.760698   -1.197256    1.590297
     16          1           0        0.291624   -2.106470    2.007722
     17          1           0        0.972320   -0.964483    3.166327
 ---------------------------------------------------------------------
                    Distance matrix (angstroms):
                    1          2          3          4          5
     1  N    0.000000
     2  C    1.522284   0.000000
     3  O    1.356762   2.353971   0.000000
     4  C    1.497702   2.450313   2.328828   0.000000
     5  C    1.499805   2.491320   2.337008   2.437343   0.000000
     6  C    2.525851   1.514561   2.843039   3.817265   3.052792
     7  H    2.071719   1.088542   2.561922   2.551878   3.377563
     8  H    2.140953   1.095005   3.283058   2.676102   2.710243
     9  H    2.091114   3.381942   2.543686   1.085875   2.632729
    10  H    2.091062   2.648167   2.533215   1.085952   3.364971
    11  H    2.152275   2.704179   3.282742   1.093037   2.702894
    12  H    2.100240   2.730812   2.545789   3.368058   1.084414
    13  H    2.088889   3.408249   2.554557   2.619944   1.085715
    14  H    2.153857   2.736941   3.288595   2.709103   1.092761
    15  H    2.657541   2.130283   2.417892   4.027687   3.274853
    16  H    2.924586   2.181263   3.387096   4.281397   2.890077
    17  H    3.449820   2.139746   3.759336   4.570156   4.082940
                    6          7          8          9         10
     6  C    0.000000
     7  H    2.147150   0.000000
     8  H    2.180006   1.778329   0.000000
     9  H    4.602285   3.534589   3.665307   0.000000
    10  H    4.020914   2.278518   3.016922   1.769601   0.000000
    11  H    4.149219   2.918813   2.465328   1.795351   1.797804
    12  H    2.703790   3.696950   3.088215   3.594904   4.166816
    13  H    4.016208   4.147479   3.683400   2.346336   3.588477
    14  H    3.427597   3.678379   2.497624   3.032357   3.701430
    15  H    1.089145   2.515022   3.057302   4.652399   4.144700
    16  H    1.091045   3.069296   2.495957   4.975042   4.712150
    17  H    1.092065   2.416334   2.577971   5.458388   4.603886
                   11         12         13         14         15
    11  H    0.000000
    12  H    3.702782   0.000000
    13  H    3.007433   1.765285   0.000000
    14  H    2.514241   1.796469   1.794005   0.000000
    15  H    4.606220   2.805647   4.047589   3.936859   0.000000
    16  H    4.479693   2.295199   3.890708   3.119400   1.777384
    17  H    4.807792   3.762654   5.073850   4.323540   1.777524
                   16         17
    16  H    0.000000
    17  H    1.763476   0.000000
 Symmetry turned off by external request.
 Stoichiometry    C4H11NO
 Framework group  C1[X(C4H11NO)]
 Deg. of freedom    45
 Full point group                 C1      NOp   1
 Rotational constants (GHZ):           4.9482971           2.7745988           2.6755520
 Standard basis: def2TZVP (5D, 7F)
 The following finite field(s) will be applied:
 An electric field of             -0.0023 -0.0000  0.0044
   252 basis functions,   394 primitive gaussians,   282 cartesian basis functions
    25 alpha electrons       25 beta electrons
       nuclear repulsion energy       274.9794094507 Hartrees.
 NAtoms=   17 NActive=   17 NUniq=   17 SFac= 1.00D+00 NAtFMM=   60 NAOKFM=F Big=F
 Integral buffers will be    131072 words long.
 Raffenetti 2 integral format.
 Two-electron integral symmetry is turned off.
 One-electron integrals computed using PRISM.
   1 Symmetry operations used in ECPInt.
 ECPInt:  NShTT=    6105 NPrTT=   17556 LenC2=    6069 LenP2D=   14640.
 LDataN:  DoStor=T MaxTD1= 6 Len=  172
 NBasis=   252 RedAO= T EigKep=  3.08D-04  NBF=   252
 NBsUse=   252 1.00D-06 EigRej= -1.00D+00 NBFU=   252
 The nuclear repulsion energy is now       275.1187526566 hartrees.
 Initial guess from the checkpoint file:  "checkpoint.chk"
 B after Tr=    -0.001988    0.000635    0.000330
         Rot=    1.000000   -0.000024   -0.000022    0.000702 Ang=  -0.08 deg.
 Requested convergence on RMS density matrix=1.00D-08 within 128 cycles.
 Requested convergence on MAX density matrix=1.00D-06.
 Requested convergence on             energy=1.00D-06.
 No special actions if energy rises.
 SCF Done:  E(RB3LYP) =  -289.049216022     A.U. after    8 cycles
            NFock=  8  Conv=0.41D-08     -V/T= 2.0051
   1 Symmetry operations used in ECPInt.
 ECPInt:  NShTT=    6105 NPrTT=   17556 LenC2=    6069 LenP2D=   14640.
 LDataN:  DoStor=T MaxTD1= 7 Len=  274
 Calling FoFJK, ICntrl=      2127 FMM=F ISym2X=0 I1Cent= 0 IOpClX= 0 NMat=1 NMatS=1 NMatT=0.
 -------------------------------------------------------------------
 Center     Atomic                   Forces (Hartrees/Bohr)
 Number     Number              X              Y              Z
 -------------------------------------------------------------------
      1        7           0.001934570    0.000003343   -0.000001304
      2        6          -0.001941678    0.000112663   -0.000049862
      3        8           0.000018007   -0.000071780    0.000071943
      4        6          -0.000035432    0.000074859    0.000052969
      5        6          -0.000014801   -0.000042252    0.000047279
      6        6          -0.000035714   -0.000086396   -0.000045358
      7        1          -0.000017492   -0.000002477    0.000036451
      8        1          -0.000016118   -0.000013389   -0.000046243
      9        1           0.000008435   -0.000005953    0.000010153
     10        1          -0.000014212    0.000037855   -0.000026561
     11        1           0.000018347    0.000003004   -0.000003540
     12        1           0.000017715   -0.000051481    0.000010334
     13        1           0.000019173   -0.000004444    0.000002363
     14        1           0.000031340    0.000005618    0.000008173
     15        1           0.000054110    0.000024187   -0.000002346
     16        1          -0.000029434    0.000001774   -0.000021564
     17        1           0.000003184    0.000014869   -0.000042887
 -------------------------------------------------------------------
 Cartesian Forces:  Max     0.001941678 RMS     0.000385569
 -----------------------------------------------------------------------------------------------
                       Internal Coordinate Forces (Hartree/Bohr or radian)
  Cent   Atom   N1       Length/X         N2         Alpha/Y        N3         Beta/Z          J
 -----------------------------------------------------------------------------------------------
      1  N 
      2  C        1  -0.000172(     1)
      3  O        1  -0.000007(     2)      2  -0.000189(    17)
      4  C        1   0.000091(     3)      2  -0.000115(    18)      3   0.000034(    32)     0
      5  C        1   0.000023(     4)      2  -0.000232(    19)      3  -0.000212(    33)     0
      6  C        2  -0.000013(     5)      1  -0.000323(    20)      3  -0.000033(    34)     0
      7  H        2  -0.000001(     6)      1   0.000078(    21)      6   0.000029(    35)     0
      8  H        2   0.000000(     7)      1  -0.000101(    22)      6   0.000026(    36)     0
      9  H        4  -0.000010(     8)      1  -0.000020(    23)      2   0.000026(    37)     0
     10  H        4   0.000013(     9)      1   0.000091(    24)      9   0.000027(    38)     0
     11  H        4  -0.000018(    10)      1   0.000004(    25)      9   0.000008(    39)     0
     12  H        5   0.000054(    11)      1   0.000027(    26)      2   0.000016(    40)     0
     13  H        5  -0.000002(    12)      1  -0.000013(    27)     12   0.000037(    41)     0
     14  H        5  -0.000027(    13)      1  -0.000028(    28)     12  -0.000025(    42)     0
     15  H        6   0.000048(    14)      2  -0.000013(    29)      1   0.000042(    43)     0
     16  H        6   0.000014(    15)      2  -0.000068(    30)     15   0.000011(    44)     0
     17  H        6  -0.000039(    16)      2  -0.000029(    31)     15  -0.000038(    45)     0
 -----------------------------------------------------------------------------------------------
 Internal  Forces:  Max     0.000322806 RMS     0.000087163

 GradGradGradGradGradGradGradGradGradGradGradGradGradGradGradGradGradGrad
 Berny optimization.
 Search for a local minimum.
 Step number   4 out of a maximum of   55
 All quantities printed in internal units (Hartrees-Bohrs-Radians)
 Update second derivatives using D2CorN and points    2    1    3    4
 DE= -2.31D-06 DEPred=-3.69D-06 R= 6.26D-01
 TightC=F SS=  1.41D+00  RLast= 7.14D-03 DXNew= 1.6818D-01 2.1425D-02
 Trust test= 6.26D-01 RLast= 7.14D-03 DXMaxT set to 1.00D-01
 ITU=  1  1  0  0
     Eigenvalues ---    0.02299   0.02638   0.03041   0.04175   0.07202
     Eigenvalues ---    0.08845   0.08931   0.09947   0.12826   0.13015
     Eigenvalues ---    0.13849   0.13982   0.18056   0.22695   0.22776
     Eigenvalues ---    0.23291   0.24567   0.27007   0.30379   0.30983
     Eigenvalues ---    0.31666   0.31781   0.32449   0.32593   0.32955
     Eigenvalues ---    0.34280   0.34513   0.34542   0.34643   0.34708
     Eigenvalues ---    0.34937   0.34994   0.35287   0.35289   0.35306
     Eigenvalues ---    0.35470   0.36197   0.37831   0.39159   0.40302
     Eigenvalues ---    0.40420   0.43261   0.53381   0.55805   0.61458
 RFO step:  Lambda=-3.71359112D-07 EMin= 2.29859796D-02
 Quartic linear search produced a step of -0.24392.
 Variable       Old X    -DE/DX   Delta X   Delta X   Delta X     New X
                                 (Linear)    (Quad)   (Total)
    R2        2.87670  -0.00017  -0.00010  -0.00032  -0.00042   2.87628
    R3        2.56391  -0.00001  -0.00013   0.00014   0.00001   2.56391
    R4        2.83025   0.00009   0.00015   0.00005   0.00019   2.83044
    R5        2.83422   0.00002   0.00008  -0.00004   0.00004   2.83426
    R6        2.86211  -0.00001  -0.00010   0.00009  -0.00002   2.86209
    R7        2.05705  -0.00000   0.00004  -0.00005  -0.00001   2.05704
    R8        2.06926   0.00000  -0.00012   0.00013   0.00001   2.06927
    R9        2.05201  -0.00001  -0.00001  -0.00001  -0.00002   2.05199
   R10        2.05215   0.00001   0.00002   0.00001   0.00003   2.05218
   R11        2.06554  -0.00002  -0.00002  -0.00002  -0.00004   2.06550
   R12        2.04925   0.00005   0.00004   0.00006   0.00011   2.04935
   R13        2.05170  -0.00000  -0.00001   0.00001  -0.00000   2.05170
   R14        2.06502  -0.00003  -0.00001  -0.00005  -0.00006   2.06496
   R15        2.05818   0.00005   0.00001   0.00009   0.00010   2.05829
   R16        2.06178   0.00001  -0.00001   0.00004   0.00003   2.06181
   R17        2.06370  -0.00004   0.00003  -0.00012  -0.00009   2.06361
    A3        1.91220  -0.00019  -0.00052   0.00020  -0.00031   1.91189
    A4        1.89292  -0.00011   0.00019  -0.00011   0.00007   1.89300
    A5        1.93814  -0.00023  -0.00019  -0.00030  -0.00049   1.93765
    A6        1.96445  -0.00032  -0.00048  -0.00031  -0.00079   1.96366
    A7        1.81141   0.00008   0.00042   0.00027   0.00069   1.81210
    A8        1.89668  -0.00010  -0.00021  -0.00023  -0.00044   1.89624
    A9        1.86736  -0.00002   0.00007  -0.00022  -0.00015   1.86720
   A10        1.86721   0.00009   0.00017   0.00014   0.00032   1.86753
   A11        1.94423   0.00000  -0.00001   0.00000  -0.00000   1.94423
   A12        1.87865   0.00003   0.00004   0.00004   0.00009   1.87873
   A13        1.86208  -0.00001   0.00013  -0.00020  -0.00007   1.86201
   A14        1.94415  -0.00003  -0.00002  -0.00005  -0.00007   1.94408
   A15        1.89724  -0.00001   0.00024  -0.00027  -0.00003   1.89721
   A16        1.96641  -0.00007  -0.00007  -0.00009  -0.00016   1.96625
   A17        1.90722  -0.00003   0.00001  -0.00006  -0.00005   1.90717
    D4       -2.07985   0.00003   0.00003  -0.00037  -0.00034  -2.08019
    D5        2.11754  -0.00021  -0.00059  -0.00010  -0.00070   2.11684
    D6       -0.96084  -0.00003   0.00070  -0.00139  -0.00069  -0.96153
    D7        2.07657   0.00003  -0.00003   0.00060   0.00057   2.07714
    D8       -2.18262   0.00003   0.00019   0.00071   0.00090  -2.18172
    D9        3.11467   0.00003   0.00034   0.00012   0.00046   3.11514
   D10       -2.03948   0.00003  -0.00011   0.00018   0.00007  -2.03941
   D11        2.11952   0.00001  -0.00004  -0.00006  -0.00010   2.11942
   D12       -1.12345   0.00002   0.00018   0.00001   0.00019  -1.12326
   D13       -2.03711   0.00004  -0.00010   0.00017   0.00007  -2.03704
   D14        2.13196  -0.00002  -0.00013   0.00013   0.00000   2.13196
   D15        0.82442   0.00004   0.00099   0.00058   0.00156   0.82598
   D16       -2.11541   0.00001   0.00005  -0.00015  -0.00011  -2.11552
   D17        2.07771  -0.00004   0.00009  -0.00026  -0.00017   2.07755
         Item               Value     Threshold  Converged?
 Maximum Force            0.000323     0.000450     YES
 RMS     Force            0.000087     0.000300     YES
 Maximum Displacement     0.001564     0.001800     YES
 RMS     Displacement     0.000395     0.001200     YES
 Predicted change in Energy=-5.089725D-07
 Optimization completed.
    -- Stationary point found.
                       ----------------------------
                       !   Optimized Parameters   !
                       ! (Angstroms and Degrees)  !
 ----------------------                            ----------------------
 !      Name          Value   Derivative information (Atomic Units)     !
 ------------------------------------------------------------------------
 !       R2          1.5223   -DE/DX =   -0.0002                        !
 !       R3          1.3568   -DE/DX =    0.0                           !
 !       R4          1.4977   -DE/DX =    0.0001                        !
 !       R5          1.4998   -DE/DX =    0.0                           !
 !       R6          1.5146   -DE/DX =    0.0                           !
 !       R7          1.0885   -DE/DX =    0.0                           !
 !       R8          1.095    -DE/DX =    0.0                           !
 !       R9          1.0859   -DE/DX =    0.0                           !
 !       R10         1.086    -DE/DX =    0.0                           !
 !       R11         1.093    -DE/DX =    0.0                           !
 !       R12         1.0844   -DE/DX =    0.0001                        !
 !       R13         1.0857   -DE/DX =    0.0                           !
 !       R14         1.0928   -DE/DX =    0.0                           !
 !       R15         1.0891   -DE/DX =    0.0                           !
 !       R16         1.091    -DE/DX =    0.0                           !
 !       R17         1.0921   -DE/DX =    0.0                           !
 !       A3        109.5612   -DE/DX =   -0.0002                        !
 !       A4        108.4564   -DE/DX =   -0.0001                        !
 !       A5        111.0472   -DE/DX =   -0.0002                        !
 !       A6        112.5546   -DE/DX =   -0.0003                        !
 !       A7        103.7861   -DE/DX =    0.0001                        !
 !       A8        108.6715   -DE/DX =   -0.0001                        !
 !       A9        106.9916   -DE/DX =    0.0                           !
 !       A10       106.9833   -DE/DX =    0.0001                        !
 !       A11       111.3964   -DE/DX =    0.0                           !
 !       A12       107.6386   -DE/DX =    0.0                           !
 !       A13       106.6892   -DE/DX =    0.0                           !
 !       A14       111.3915   -DE/DX =    0.0                           !
 !       A15       108.7041   -DE/DX =    0.0                           !
 !       A16       112.6671   -DE/DX =   -0.0001                        !
[...]
   zy         0.103333D+01      0.153123D+00      0.170372D+00
   zz         0.631847D+02      0.936300D+01      0.104177D+02

 ----------------------------------------------------------------------
 1\1\GINC-BHC0026\Freq\RB3LYP\def2TZVP\C4H11N1O1\DHANAWAY\10-Jun-2022\1
 \\#N Geom=AllCheck Guess=TCheck SCRF=Check GenChk RB3LYP/def2TZVP Freq
 \\int_zmat_initalOpt\\0,1\N\C,1,R2\O,1,R3,2,A3\C,1,R4,2,A4,3,D4,0\C,1,
 R5,2,A5,3,D5,0\C,2,R6,1,A6,3,D6,0\H,2,R7,1,A7,6,D7,0\H,2,R8,1,A8,6,D8,
 0\H,4,R9,1,A9,2,D9,0\H,4,R10,1,A10,9,D10,0\H,4,R11,1,A11,9,D11,0\H,5,R
 12,1,A12,2,D12,0\H,5,R13,1,A13,12,D13,0\H,5,R14,1,A14,12,D14,0\H,6,R15
 ,2,A15,1,D15,0\H,6,R16,2,A16,15,D16,0\H,6,R17,2,A17,15,D17,0\\R2=1.522
 28369\R3=1.35676178\R4=1.49770189\R5=1.49980451\R6=1.51456118\R7=1.088
 54197\R8=1.09500481\R9=1.08587494\R10=1.08595193\R11=1.09303678\R12=1.
 08441422\R13=1.08571484\R14=1.09276079\R15=1.08914452\R16=1.09104468\R
 17=1.09206512\A3=109.56119533\A4=108.45641249\A5=111.04723093\A6=112.5
 5459195\A7=103.78606627\A8=108.67154586\A9=106.99163668\A10=106.983261
 49\A11=111.3964254\A12=107.63856733\A13=106.68921789\A14=111.39151848\
 A15=108.70411252\A16=112.66714798\A17=109.27556648\D4=-119.16638058\D5
 =121.32596702\D6=-55.05198956\D7=118.97869237\D8=-125.05497672\D9=178.
 45763049\D10=-116.85341095\D11=121.4394414\D12=-64.36909185\D13=-116.7
 177286\D14=122.15231769\D15=47.23553645\D16=-121.20424729\D17=119.0442
 945\\Version=ES64L-G16RevA.03\HF=-289.049216\RMSD=1.684e-09\RMSF=3.856
 e-04\ZeroPoint=0.1528484\Thermal=0.1602738\Dipole=-1.493352,-0.0054931
 ,0.3303089\DipoleDeriv=0.2948377,0.0101693,-0.092472,0.0243407,0.02792
 98,-0.0069171,-0.1026736,-0.0060994,0.0728827,0.2371408,-0.0267619,0.0
 216587,-0.0246865,0.1161914,-0.044112,0.0822669,-0.0519143,0.2958847,-
 0.7146308,0.0144227,0.0390534,-0.008795,-0.5602855,0.0447719,0.0603383
 ,0.0269166,-0.6394698,0.2060724,-0.0513862,-0.0169892,-0.0071258,0.183
 384,-0.0688136,-0.0585745,-0.0216115,0.0837786,0.1931693,0.0556075,-0.
 0002644,0.0007627,0.1400906,0.0670514,-0.0506676,0.0434271,0.0822299,-
 0.0307133,0.0726546,0.0352244,0.0787502,0.0661563,0.0373979,-0.007882,
 0.0731507,-0.0097909,0.035746,-0.0499587,-0.0311319,-0.0238996,-0.0919
 162,-0.0362951,-0.0078285,0.0037894,0.016242,-0.1852983,0.0452505,0.08
 90812,0.0147042,0.0385966,0.0223379,0.0386342,0.0123192,-0.063837,0.07
 01005,0.0213895,0.0128911,0.017477,0.0633889,-0.0382569,-0.0278862,0.0
 170883,-0.0349529,0.0275447,-0.0651835,-0.0442877,-0.0074156,-0.011526
 9,-0.0262514,-0.0335478,-0.0684195,0.0535121,-0.1639133,0.0771385,0.04
 07118,0.0112298,0.0009539,0.0415759,0.0877,0.0091139,0.0364017,0.02734
 11,0.0540675,-0.0304375,0.010475,-0.0283448,0.0295934,-0.0188373,0.056
 8313,0.0817346,0.0683015,-0.0213821,0.0088094,-0.0082356,0.0716908,0.0
 492864,-0.0275975,-0.0039074,-0.0328631,-0.1600155,-0.0726005,0.035332
 8,-0.0176618,0.0084765,-0.0394827,0.0855544,-0.015198,0.0354021,0.0182
 399,0.0207023,-0.0069428,-0.0096545,0.0581256,-0.0105484,0.0651838,-0.
 042943,0.1317404,-0.0024942,-0.0954225,-0.0155917,-0.0527051,-0.119364
 9,0.0143415,-0.0273639,-0.0301235,0.0642258,0.0785716,0.0112929,-0.044
 6458,0.0024399,0.0364539,-0.0356791,-0.0568187,-0.0024199,-0.173121\Po
 lar=64.0655147,-1.7166406,63.3843227,2.3803103,-2.9522783,66.8628606\P
 G=C01 [X(C4H11N1O1)]\NImag=0\\0.41466060,-0.00319390,0.51817949,0.0376
 1041,0.00574250,0.46944769,-0.07146965,0.00176932,-0.01830691,0.597719
 70,0.00198077,-0.08965561,-0.00895356,0.03780115,0.57682987,-0.0300336
 5,-0.00139218,-0.09883068,-0.00878103,0.01920967,0.37751642,-0.1788905
 7,0.00170454,0.02903052,-0.02531980,-0.00151076,0.03531932,0.30407634,
 0.00160451,-0.08728102,-0.00257645,0.00092655,0.00342442,0.00136506,-0
 .00330131,0.06826593,0.03149679,-0.00101396,-0.09623238,0.04193258,0.0
 0043967,-0.02051093,-0.08187159,-0.00238243,0.10169262,-0.06711603,0.0
 1064860,-0.01288537,0.00298305,0.00300814,-0.00917826,-0.05289985,0.03
 013892,0.00228235,0.55902601,0.00435747,-0.13377783,0.02411265,0.00134
 789,-0.00330270,0.01064986,0.01920314,0.00352169,-0.00647046,0.0827397
 1,0.48038562,-0.01015379,0.02284212,-0.09741590,-0.01851334,0.03174908
 ,-0.02070762,0.00952173,-0.01052416,0.00689489,-0.02396187,0.05482004,
 0.60201946,-0.06794976,-0.01050509,-0.01398310,0.00289234,-0.00216800,
 -0.00818966,-0.05282622,-0.02867651,0.00154714,0.01233633,0.00834367,0
 .00434399,0.55423407,-0.00273518,-0.13033214,-0.02171674,-0.00045789,-
 0.00012716,-0.00915043,-0.01801418,0.00434456,0.00646504,-0.01042452,-
 0.03850958,-0.00983585,-0.08627968,0.49444528,-0.01047426,-0.02397206,
 -0.10111434,-0.01676877,-0.02969791,-0.01762970,0.00814181,0.00980210,
 0.00832198,0.00396951,0.00684018,0.00476064,-0.03286790,-0.06211146,0.
 59121478,0.00186469,0.00059838,-0.00910898,-0.11511147,0.04769154,-0.0
 1796594,-0.00125949,0.00058883,0.00026098,0.00047995,-0.00066695,0.000
 74608,-0.00029469,0.00025395,-0.00016166,0.53611943,-0.00394820,0.0025
 0339,0.00729866,0.05026892,-0.15580446,0.02891145,0.00202072,-0.000157
 92,0.00134355,-0.00040147,0.00013942,-0.00143492,-0.00009566,0.0017443
 7,0.00055822,0.04253679,0.52274403,-0.02019712,0.02974130,-0.02388837,
 -0.01724950,0.02737876,-0.08879146,-0.00321979,0.00213235,0.00000488,0
 .00136298,-0.00222752,-0.00551843,0.00054153,0.00072393,-0.00082688,-0
 .02676596,0.02458290,0.55587047,-0.00131493,-0.00115866,-0.00050493,-0
 .10095190,-0.10269703,-0.02787887,0.00054754,0.00081674,0.00078541,-0.
 00036975,-0.00062845,-0.00020503,-0.00007674,0.00043298,-0.00071727,0.
 00837618,0.01733443,0.00373240,0.10443061,-0.00318097,-0.00368786,-0.0
 0176072,-0.10117647,-0.25116182,-0.05714568,0.00120769,0.00111499,0.00
 130918,0.00059630,0.00048854,0.00182318,0.00071121,0.00124703,-0.00000
 438,-0.00974546,-0.02326120,-0.00363283,0.10765739,0.27276576,-0.01810
 165,-0.03286750,-0.02267187,-0.02076640,-0.04797926,-0.05758159,-0.001
 99657,0.00222931,0.00386797,-0.00007972,-0.00283606,0.00052161,0.00154
 310,0.00225626,-0.00625268,0.00510249,0.01253812,0.00235595,0.03295658
 ,0.05569631,0.07569419,-0.00281518,-0.00038612,-0.00196754,-0.27321768
 ,-0.00399947,0.07262411,0.00224967,0.00057721,0.00311761,-0.00081356,0
 .00034963,-0.00040835,-0.00088026,-0.00037071,-0.00029982,-0.01461977,
 -0.00059224,0.00546981,-0.01197753,0.00058753,0.00406473,0.29866317,0.
 00105849,-0.00170293,-0.00141872,-0.00435152,-0.05126657,0.00040044,0.
 00035628,0.00182361,0.00090353,-0.00043578,-0.00016809,0.00051789,0.00
 034469,-0.00004129,-0.00029883,0.02492259,-0.00010015,-0.00874755,-0.0
 2479329,0.00199231,0.00956629,0.00096303,0.05110476,0.03235635,0.00146
 351,-0.00846009,0.06512459,-0.00170299,-0.07338064,0.00396015,-0.00039
 198,-0.00919786,0.00071288,-0.00075855,0.00067154,0.00050459,0.0005062
 4,0.00095349,-0.01385348,0.00039229,0.00643010,-0.00739155,0.00095134,
 0.00373736,-0.07950882,-0.00272999,0.08107336,-0.00197261,0.00278283,-
 0.01807316,-0.00195422,0.00200671,0.00041634,0.00151235,-0.00077910,0.
 00028134,-0.04775758,-0.00043177,0.01596915,-0.00033709,-0.00104603,0.
 00011562,0.00054593,0.00010641,-0.00093759,0.00002538,0.00019926,0.000
 21142,0.00032555,0.00009672,-0.00025413,0.04737039,0.00300683,-0.00705
 521,0.03471303,0.00249651,-0.00466297,-0.00056166,-0.00406205,0.001254
 98,-0.00109302,-0.00003081,-0.04727232,-0.01594772,0.00042190,0.001434
 63,0.00206912,0.00012998,0.00083521,0.00184799,0.00034084,0.00027831,0
 .00014544,-0.00012214,-0.00012585,-0.00015037,-0.00309264,0.05515125,-
 0.00048086,0.00198586,-0.01482386,-0.00137989,0.00242217,0.00068164,0.
 00122887,-0.00159498,0.00247353,0.00913349,-0.00522238,-0.32606876,0.0
 0023467,-0.00132095,0.00018914,0.00030714,-0.00038472,-0.00031868,0.00
 018106,0.00006959,0.00028497,0.00011180,-0.00015627,0.00024217,-0.0101
 3209,0.00465027,0.35033054,0.00551593,0.01563157,0.00444390,-0.0001617
 2,0.00036476,0.00076283,0.00201248,0.00000916,-0.00042380,-0.12979801,
 -0.12103126,-0.05357644,-0.00155460,0.00174003,-0.00057231,0.00010265,
 0.00014835,0.00023373,0.00050414,0.00024499,-0.00004573,-0.00003154,-0
 .00016750,-0.00004272,0.00117016,0.00165912,0.00107472,0.13404280,-0.0
 1413946,-0.03224317,-0.00888975,-0.00104523,0.00011449,-0.00257161,-0.
 00231626,0.00444088,0.00100355,-0.10996083,-0.20669557,-0.07214138,0.0
 0443141,-0.00329689,0.00288237,0.00034411,0.00031630,0.00019818,0.0004
 1684,0.00063450,0.00099571,0.00008152,0.00002469,0.00010040,-0.0001086
 6,0.00134664,-0.00026339,0.12174124,0.23208179,0.00426548,0.01219686,0
 .00237459,0.00061834,0.00162574,0.00067861,0.00188964,-0.00039451,-0.0
 0089610,-0.05326491,-0.07840653,-0.08266217,-0.00068874,0.00113705,-0.
 00074479,0.00000268,-0.00016506,0.00009189,-0.00039441,0.00065423,-0.0
 0044445,0.00005026,-0.00000469,-0.00007760,-0.01715351,-0.02461384,-0.
 00857564,0.05864187,0.07770272,0.08533363,-0.01402763,-0.00444645,0.00
 673319,-0.00038446,-0.00046094,0.00125313,-0.00336193,0.00671503,-0.00
 171670,-0.27313738,0.00600588,0.07783325,-0.00042322,-0.00118770,0.000
 06960,0.00028144,0.00013384,-0.00063220,-0.00017597,0.00001747,0.00001
 569,0.00109023,0.00027648,-0.00090125,0.00076278,-0.00086510,-0.000106
 43,-0.01261689,0.00156278,0.00611144,0.30023629,0.02355145,0.00203869,
 -0.01131600,-0.00030485,0.00030437,-0.00063945,0.00726332,-0.00344560,
 0.00105950,-0.00053374,-0.05456311,0.00171873,0.00007206,0.00059206,0.
 00008442,-0.00030397,0.00000820,-0.00004928,-0.00010861,-0.00001434,0.
 00019889,0.00000086,0.00002432,0.00074281,0.00019031,-0.00000115,-0.00
 072655,-0.02154578,0.00403340,0.00960334,-0.00787578,0.05172859,-0.009
 49562,-0.00098278,0.00156253,-0.00016443,0.00025607,-0.00021266,-0.002
 15993,0.00103656,0.00234792,0.08125504,-0.00056648,-0.08061854,0.00050
 793,-0.00025274,-0.00016828,0.00033443,-0.00026212,0.00014069,-0.00009
 227,-0.00012724,-0.00005678,-0.00045021,0.00052188,-0.00042401,0.02957
 345,-0.00072220,-0.00554613,-0.01040696,0.00150839,0.00386626,-0.08849
 683,-0.00022076,0.07852707,0.00627519,-0.01752668,0.00514331,0.0001722
 5,0.00071579,0.00068235,0.00228555,0.00021146,-0.00023309,-0.00197634,
 -0.00182358,-0.00094123,-0.12552968,0.12369896,-0.04274359,0.00028266,
 0.00043231,-0.00115016,0.00000300,-0.00003757,0.00008255,-0.00002018,0
 .00008786,-0.00006284,-0.00012010,-0.00001041,0.00002167,0.00076054,-0
 .00093736,0.00006117,0.00021728,-0.00017925,-0.00018756,0.12948461,0.0
 1290507,-0.03043356,0.00672421,0.00050592,-0.00016335,0.00162237,0.002
 11551,0.00417081,-0.00056734,-0.00431224,-0.00280117,-0.00293398,0.112
 82736,-0.22645510,0.06284320,-0.00004112,0.00002073,0.00036625,0.00002
 261,0.00005412,-0.00000650,-0.00005433,-0.00006581,-0.00007700,-0.0000
 3051,0.00022053,-0.00009484,0.00080649,-0.00145819,0.00051763,0.000083
 63,0.00031764,-0.00012652,-0.12478201,0.25146306,0.00572878,-0.0150074
 1,0.00339040,0.00087036,-0.00022464,0.00062162,0.00197747,0.00086366,-
 0.00093545,-0.00125357,-0.00115689,-0.00106054,-0.04333982,0.06919843,
 -0.07140448,-0.00060023,-0.00056617,-0.00102971,-0.00004334,0.00017752
 ,0.00009132,-0.00001151,-0.00003100,-0.00011084,-0.00010321,-0.0002486
 2,0.00040117,0.00006981,-0.00070909,0.00069728,-0.00015796,0.00010091,
 -0.00012241,0.04811211,-0.06813656,0.07478658,-0.00225928,-0.00190885,
 -0.01935804,-0.00176054,-0.00212170,0.00051898,0.00161795,0.00064487,0
 .00043820,-0.00026353,0.00112594,0.00010233,-0.04768437,-0.00035149,0.
 01320709,0.00019004,-0.00001125,-0.00009577,0.00034182,-0.00010525,-0.
 00098768,0.00027987,-0.00010939,-0.00017231,0.00053740,0.00001533,0.00
 010021,-0.00011835,0.00006344,-0.00008896,-0.00005506,-0.00000463,0.00
 020356,0.00087824,0.00127908,-0.01665607,0.04735037,-0.00371201,-0.004
 75971,-0.03424108,-0.00272453,-0.00496407,0.00008155,0.00385442,0.0009
 5628,0.00101841,-0.00039028,0.00137386,-0.00206689,-0.00018578,-0.0490
 0006,0.03386501,-0.00010034,-0.00049909,0.00044933,-0.00020872,0.00008
 762,-0.00186031,0.00008427,-0.00001953,0.00017576,-0.00010483,-0.00087
 944,0.00014596,0.00004794,0.00022738,0.00022211,0.00006148,-0.00010459
 ,0.00007513,-0.00146405,-0.00039966,0.02583729,0.00375647,0.05717855,-
 0.00094504,-0.00193712,-0.01708815,-0.00119341,-0.00214836,0.00128398,
 0.00148446,0.00145437,0.00254774,0.00027860,0.00146384,0.00018774,0.00
 625330,0.02347138,-0.32415371,0.00016863,-0.00017551,0.00021470,-0.000
 17081,-0.00013107,-0.00069056,0.00007729,0.00012298,0.00024985,0.00008
 392,-0.00024213,0.00092984,0.00002897,0.00008786,0.00041417,-0.0000543
 9,-0.00011509,-0.00005902,0.00080039,0.00087550,-0.00685302,-0.0067095
 3,-0.02391005,0.34886527,-0.01433065,0.00409361,0.00726510,-0.00051484
 ,0.00024224,0.00116020,-0.00346153,-0.00635835,-0.00227691,-0.00053320
 ,0.00120098,0.00011153,-0.27222363,-0.00522258,0.07997644,-0.00004576,
 -0.00006460,-0.00037882,0.00036067,0.00002763,-0.00005448,0.00107904,-
 0.00014883,-0.00088929,-0.00004101,-0.00005954,-0.00005411,0.00018740,
 -0.00006176,-0.00014785,0.00130870,-0.00020255,-0.00025342,-0.01211629
 ,-0.00150005,0.00598406,0.00109075,0.00085245,-0.00008014,0.29915876,-
 0.02224467,0.00185531,0.01158585,0.00044125,0.00068885,0.00055957,-0.0
 0706881,-0.00301457,-0.00118955,-0.00013233,0.00054659,-0.00004317,0.0
 0094902,-0.05448408,-0.00188724,0.00010539,0.00002527,-0.00017375,0.00
 016157,0.00002983,0.00022662,0.00001415,0.00000219,-0.00068586,-0.0000
 2224,-0.00009821,0.00010036,0.00022364,0.00031614,-0.00003401,0.000209
 16,-0.00106824,-0.00002659,0.02259532,0.00434310,-0.01020069,-0.002210
 64,-0.00016836,0.00112022,0.00706518,0.05122917,-0.01113272,0.00118605
 ,0.00251008,-0.00012123,0.00001317,-0.00013807,-0.00268211,-0.00138917
 ,0.00253112,0.00056233,0.00025932,-0.00019080,0.08365448,0.00036025,-0
 .08253562,0.00011364,-0.00008523,-0.00002885,0.00016479,0.00012565,0.0
 0018032,-0.00049855,-0.00041891,-0.00043983,0.00018277,-0.00007700,-0.
 00003619,-0.00016043,0.00016264,-0.00010311,-0.00023312,-0.00006009,0.
 00046061,-0.00879100,-0.00115571,0.00310594,0.02952145,0.00027785,-0.0
 0584396,-0.09056730,0.00061347,0.08046626,-0.00210518,-0.00036777,0.00
 288571,-0.01928488,0.00393901,0.00496189,0.00179732,-0.00189088,0.0021
 0157,-0.00044204,0.00009894,0.00002849,-0.00030950,0.00019371,-0.00018
 809,-0.25707033,0.00952774,0.11008016,0.00063796,-0.00011062,-0.000239
 63,-0.00051179,0.00311545,-0.00095027,0.00009734,-0.00004416,-0.000065
 87,0.00000211,-0.00004014,0.00002237,0.00021872,0.00003608,-0.00012280
 ,-0.00019714,-0.00014088,-0.00012657,0.00003467,-0.00005187,-0.0000310
 5,0.00018201,-0.00008089,0.00003269,0.28043114,0.00074138,0.00129090,-
 0.00035824,0.02471549,-0.00153197,-0.01366736,-0.00159413,-0.00021545,
 -0.00088307,-0.00016932,0.00000485,-0.00015038,-0.00019668,0.00018690,
 0.00015407,0.00848191,-0.04977493,-0.00678277,-0.00025103,0.00063064,-
 0.00059251,0.00253915,-0.00330298,0.00299355,-0.00007525,0.00002215,0.
 00006040,0.00007419,-0.00005316,-0.00002029,-0.00029078,0.00016560,-0.
 00004652,-0.00014221,-0.00002387,0.00004120,0.00005716,0.00005786,0.00
 003718,-0.00012017,-0.00023251,0.00000216,-0.01429404,0.05220982,-0.00
 104571,-0.00052896,0.00006272,-0.01262162,0.00003325,0.00815716,0.0007
 5176,-0.00002172,-0.00170572,0.00096791,0.00000289,-0.00002781,0.00002
 361,-0.00007152,-0.00031040,0.11289716,-0.00815775,-0.10305482,0.00044
 802,-0.00031044,0.00035721,-0.00185695,0.00238554,-0.00164269,-0.00000
 099,0.00002371,-0.00006449,-0.00005252,0.00003343,0.00001246,0.0003539
 1,-0.00039842,0.00023266,-0.00026953,-0.00010228,0.00003831,-0.0000306
 1,-0.00005866,-0.00006457,0.00031110,0.00010947,0.00009537,-0.12088427
 ,0.00766995,0.10885814,0.00010611,-0.00058369,0.00005294,0.00990005,0.
 01865739,0.00371606,0.00052690,-0.00001970,0.00094285,0.00009009,0.000
 03165,0.00015089,0.00035293,-0.00060694,-0.00065989,-0.10925270,-0.110
 16377,-0.01148780,-0.00140535,0.00336140,-0.00224857,0.00130308,-0.000
 70695,0.00081640,-0.00004763,-0.00010800,-0.00005206,-0.00004819,-0.00
 008076,0.00003102,0.00003212,-0.00001995,-0.00000390,-0.00017430,0.000
 24182,-0.00052815,-0.00013010,0.00018396,0.00001739,-0.00014814,0.0000
 5328,-0.00005457,-0.01143014,-0.02489093,-0.00597865,0.11374205,-0.000
 28056,-0.00018329,-0.00096023,-0.01245538,-0.02274900,-0.00363295,0.00
 014516,0.00024574,0.00067112,-0.00006622,0.00002195,0.00026793,0.00005
 705,-0.00067003,-0.00059897,-0.10743719,-0.24485691,-0.01986442,0.0034
 9177,-0.00235385,0.00221284,0.00028741,0.00122869,-0.00021002,0.000103
 17,0.00003656,0.00012619,0.00009526,0.00023305,-0.00001900,0.00000384,
 -0.00003149,-0.00004510,-0.00058790,0.00082228,-0.00005897,-0.00007880
 ,0.00054883,-0.00000125,0.00019554,-0.00003481,0.00013473,0.00066768,0
 .00217163,0.00060019,0.11819768,0.26992737,0.00089988,0.00054081,0.000
 96410,0.00745514,0.01135008,0.00072245,-0.00024433,-0.00036329,-0.0007
 0364,-0.00022176,-0.00008629,-0.00014811,-0.00048608,0.00034436,-0.000
 63450,-0.01141903,-0.02139916,-0.04962726,-0.00133882,0.00197431,0.000
 01946,0.00003184,-0.00078474,0.00020506,-0.00004065,-0.00005525,-0.000
 08100,0.00001523,-0.00013102,0.00004874,0.00001396,0.00002130,0.000027
 05,-0.00051213,0.00005630,-0.00164900,0.00003424,-0.00007424,0.0000825
 5,-0.00002525,-0.00009407,-0.00002509,0.00584988,0.01408473,0.00236413
 ,0.01558531,0.02255926,0.05052172,-0.00417104,0.00284836,0.00102295,-0
 .00353624,-0.00344959,-0.01938780,0.00139328,-0.00120742,0.00133526,0.
 00019185,-0.00022289,-0.00104739,0.00027410,0.00037727,-0.00002650,-0.
 05058877,-0.00723233,-0.03930590,0.00104490,-0.00025454,0.00054387,-0.
 00010312,-0.00050832,0.00055168,-0.00011701,0.00032434,-0.00012234,0.0
 0003109,0.00004912,0.00004411,0.00003499,-0.00003499,-0.00004047,-0.00
 022527,0.00007366,0.00007787,-0.00004987,0.00010142,-0.00000858,0.0000
 4771,-0.00005837,0.00000889,0.00794973,0.00541525,0.02698738,-0.003416
 77,-0.00233851,-0.01559742,0.05124045,0.00422897,-0.00475544,0.0020145
 7,0.00224286,0.00402769,0.02596134,-0.00000328,0.00055067,-0.00061371,
 -0.00027412,0.00060784,0.00133948,-0.00005096,-0.00107850,-0.00052782,
 -0.00735842,-0.05388225,-0.04594286,-0.00082938,0.00115543,0.00007634,
 0.00004025,0.00059264,-0.00061914,0.00020563,-0.00048511,0.00020327,-0
 .00004219,-0.00002229,-0.00000176,0.00005717,0.00001564,-0.00001898,-0
 .00025070,0.00038843,0.00012102,-0.00004029,0.00036412,0.00002726,0.00
 006080,0.00006432,0.00005081,-0.00055736,-0.00160547,-0.00120868,-0.00
 354650,-0.00435672,-0.02794308,0.00611754,0.05841900,-0.00029728,0.002
 00295,0.00021351,-0.00013448,-0.00377094,-0.01187854,-0.00113141,0.000
 75528,-0.00050059,0.00032038,-0.00041764,-0.00063722,0.00040095,-0.000
 00323,0.00033535,-0.04005793,-0.04299454,-0.29202422,0.00046904,0.0003
 3103,0.00058756,-0.00054568,0.00017215,0.00017061,-0.00013868,0.000262
 22,-0.00001826,0.00000986,0.00003100,-0.00001377,-0.00008529,-0.000004
 27,0.00004303,-0.00001240,0.00019527,0.00003280,-0.00002710,0.00006284
 ,-0.00002286,-0.00008084,0.00001938,-0.00000817,-0.00335422,-0.0025421
 0,-0.01330768,-0.00029928,-0.00118135,-0.00208664,0.04496436,0.0470819
 5,0.31911509\\-0.00193455,-0.00000340,0.00000126,0.00194172,-0.0001126
 7,0.00004990,-0.00001796,0.00007178,-0.00007194,0.00003540,-0.00007480
 ,-0.00005297,0.00001480,0.00004219,-0.00004729,0.00003572,0.00008639,0
 .00004536,0.00001750,0.00000250,-0.00003645,0.00001607,0.00001339,0.00
 004626,-0.00000843,0.00000595,-0.00001017,0.00001422,-0.00003784,0.000
 02657,-0.00001837,-0.00000300,0.00000355,-0.00001773,0.00005151,-0.000
 01034,-0.00001917,0.00000445,-0.00000236,-0.00003136,-0.00000561,-0.00
 000816,-0.00005412,-0.00002418,0.00000234,0.00002943,-0.00000178,0.000
 02156,-0.00000318,-0.00001486,0.00004289\\\@


 Children are likely to live up to what you believe of them.
 -- Lady Bird Johnson
 Job cpu time:       0 days  0 hours 51 minutes  3.2 seconds.
 Elapsed time:       0 days  0 hours  4 minutes 16.6 seconds.
 File lengths (MBytes):  RWF=     94 Int=      0 D2E=      0 Chk=     32 Scr=      1
 Normal termination of Gaussian 16 at Fri Jun 10 11:28:49 2022.
