 Entering Gaussian System, Link 0=g16
 Input=int_zmat_field_N75.gjf
 Output=int_zmat_field_N75.out
 Initial command:
 /software/gaussian/g16-a03/l1.exe "/local_scratch/11171342/Gau-2679.inp" -scrdir="/local_scratch/11171342/"
 Entering Link 1 = /software/gaussian/g16-a03/l1.exe PID=      2680.
  
 Copyright (c) 1988,1990,1992,1993,1995,1998,2003,2009,2016,
            Gaussian, Inc.  All Rights Reserved.
  
 This is part of the Gaussian(R) 16 program.  It is based on
 the Gaussian(R) 09 system (copyright 2009, Gaussian, Inc.),
 the Gaussian(R) 03 system (copyright 2003, Gaussian, Inc.),
 the Gaussian(R) 98 system (copyright 1998, Gaussian, Inc.),
 the Gaussian(R) 94 system (copyright 1995, Gaussian, Inc.),
 the Gaussian 92(TM) system (copyright 1992, Gaussian, Inc.),
 the Gaussian 90(TM) system (copyright 1990, Gaussian, Inc.),
 the Gaussian 88(TM) system (copyright 1988, Gaussian, Inc.),
 the Gaussian 86(TM) system (copyright 1986, Carnegie Mellon
 University), and the Gaussian 82(TM) system (copyright 1983,
 Carnegie Mellon University). Gaussian is a federally registered
 trademark of Gaussian, Inc.
  
 This software contains proprietary and confidential information,
 including trade secrets, belonging to Gaussian, Inc.
  
 This software is provided under written license and may be
 used, copied, transmitted, or stored only in accord with that
 written license.
  
 The following legend is applicable only to US Government
 contracts under FAR:
  
                    RESTRICTED RIGHTS LEGEND
  
 Use, reproduction and disclosure by the US Government is
 subject to restrictions as set forth in subparagraphs (a)
 and (c) of the Commercial Computer Software - Restricted
 Rights clause in FAR 52.227-19.
  
 Gaussian, Inc.
 340 Quinnipiac St., Bldg. 40, Wallingford CT 06492
  
  
 ---------------------------------------------------------------
 Warning -- This program may not be used in any manner that
 competes with the business of Gaussian, Inc. or will provide
 assistance to any competitor of Gaussian, Inc.  The licensee
 of this program is prohibited from giving any competitor of
 Gaussian, Inc. access to this program.  By using this program,
 the user acknowledges that Gaussian, Inc. is engaged in the
 business of creating and licensing software in the field of
 computational chemistry and represents and warrants to the
 licensee that it is not a competitor of Gaussian, Inc. and that
 it will not use this program in any manner prohibited above.
 ---------------------------------------------------------------
  

 Cite this work as:
 Gaussian 16, Revision A.03,
 M. J. Frisch, G. W. Trucks, H. B. Schlegel, G. E. Scuseria, 
 M. A. Robb, J. R. Cheeseman, G. Scalmani, V. Barone, 
 G. A. Petersson, H. Nakatsuji, X. Li, M. Caricato, A. V. Marenich, 
 J. Bloino, B. G. Janesko, R. Gomperts, B. Mennucci, H. P. Hratchian, 
 J. V. Ortiz, A. F. Izmaylov, J. L. Sonnenberg, D. Williams-Young, 
 F. Ding, F. Lipparini, F. Egidi, J. Goings, B. Peng, A. Petrone, 
 T. Henderson, D. Ranasinghe, V. G. Zakrzewski, J. Gao, N. Rega, 
 G. Zheng, W. Liang, M. Hada, M. Ehara, K. Toyota, R. Fukuda, 
 J. Hasegawa, M. Ishida, T. Nakajima, Y. Honda, O. Kitao, H. Nakai, 
 T. Vreven, K. Throssell, J. A. Montgomery, Jr., J. E. Peralta, 
 F. Ogliaro, M. J. Bearpark, J. J. Heyd, E. N. Brothers, K. N. Kudin, 
 V. N. Staroverov, T. A. Keith, R. Kobayashi, J. Normand, 
 K. Raghavachari, A. P. Rendell, J. C. Burant, S. S. Iyengar, 
 J. Tomasi, M. Cossi, J. M. Millam, M. Klene, C. Adamo, R. Cammi, 
 J. W. Ochterski, R. L. Martin, K. Morokuma, O. Farkas, 
 J. B. Foresman, and D. J. Fox, Gaussian, Inc., Wallingford CT, 2016.
 
 ******************************************
 Gaussian 16:  ES64L-G16RevA.03 25-Dec-2016
                10-Jun-2022 
 ******************************************
 %nprocshared=12
 Will use up to   12 processors via shared memory.
 %chk=checkpoint.chk
 %mem=12GB
 ----------------------------------------------------------------------
 # Opt=(Z-matrix, MaxStep=10) B3LYP/Def2TZVP geom=allcheckpoint guess=r
 ead Field=read NoSymm freq=noraman pop=none
 ----------------------------------------------------------------------
 1/8=10,10=7,18=40,26=3,29=7,38=1/1,3;
 2/12=2,15=1,29=3,40=1/2;
 3/5=44,7=101,11=2,14=-6,25=1,30=1,71=1,74=-5,116=-2/1,2,3;
 4/5=1/1;
 5/5=2,38=6/2;
 7/29=1,30=1/1,2,3,16;
 1/8=10,10=7,18=40,26=3/3(2);
 2/15=1,29=3/2;
 99//99;
 2/15=1,29=3/2;
 3/5=44,7=101,11=2,14=-2,25=1,30=1,71=1,74=-5/1,2,3;
 4/5=5,16=3,69=1/1;
 5/5=2,38=5/2;
 7/30=1/1,2,3,16;
 1/8=10,18=40,26=3/3(-5);
 2/15=1,29=3/2;
 99/9=1/99;
 Structure from the checkpoint file:  "checkpoint.chk"
 ------------------
 int_zmat_initalOpt
 ------------------
 Charge =  0 Multiplicity = 1
 Z-Matrix found in chk file.
 C
 C,1,R2
 C,1,R3,2,A3
 C,1,R4,2,A4,3,D4,0
 H,2,R5,1,A5,3,D5,0
 C,2,R6,1,A6,5,D6,0
 C,3,R7,1,A7,2,D7,0
 C,3,R8,1,A8,7,D8,0
 H,4,R9,1,A9,2,D9,0
 H,4,R10,1,A10,9,D10,0
 C,6,R11,2,A11,1,D11,0
 H,6,R12,2,A12,11,D12,0
 H,7,R13,3,A13,1,D13,0
 H,8,R14,3,A14,1,D14,0
 H,8,R15,3,A15,14,D15,0
 H,11,R16,6,A16,2,D16,0
      Variables:
 R2=1.3825166
 R3=1.38921066
 R4=1.51984932
 R5=1.08326562
 R6=1.39853217
 R7=1.38252198
 R8=1.51985179
 R9=1.09257474
 R10=1.09257484
 R11=1.39704724
 R12=1.08260131
 R13=1.08326514
 R14=1.09257339
 R15=1.0925735
 R16=1.08260168
 A3=122.31186466
 A4=144.10304003
 A5=123.30760112
 A6=115.9792532
 A7=122.3120282
 A8=93.58420297
 A9=115.7216543
 A10=115.72174479
 A11=121.70904586
 A12=119.46398977
 A13=123.30852416
 A14=115.72280973
 A15=115.72288765
 A16=118.82463786
 D4=-179.99985045
 D5=180.00000268
 D6=-179.99996569
 D7=-0.00008078
 D8=179.9999485
 D9=-64.38569377
 D10=128.7714848
 D11=0.00000927
 D12=179.99997056
 D13=179.99998177
 D14=115.6131096
 D15=128.77413661
 D16=-179.99998338
 Recover connectivity data from disk.

 GradGradGradGradGradGradGradGradGradGradGradGradGradGradGradGradGradGrad
 Berny optimization.
 Initialization pass.
                       ----------------------------
                       !    Initial Parameters    !
                       ! (Angstroms and Degrees)  !
 ----------------------                            ----------------------
 !      Name          Value   Derivative information (Atomic Units)     !
 ------------------------------------------------------------------------
 !       R2          1.3825   estimate D2E/DX2                          !
 !       R3          1.3892   estimate D2E/DX2                          !
 !       R4          1.5198   estimate D2E/DX2                          !
 !       R5          1.0833   estimate D2E/DX2                          !
 !       R6          1.3985   estimate D2E/DX2                          !
 !       R7          1.3825   estimate D2E/DX2                          !
 !       R8          1.5199   estimate D2E/DX2                          !
 !       R9          1.0926   estimate D2E/DX2                          !
 !       R10         1.0926   estimate D2E/DX2                          !
 !       R11         1.397    estimate D2E/DX2                          !
 !       R12         1.0826   estimate D2E/DX2                          !
 !       R13         1.0833   estimate D2E/DX2                          !
 !       R14         1.0926   estimate D2E/DX2                          !
 !       R15         1.0926   estimate D2E/DX2                          !
 !       R16         1.0826   estimate D2E/DX2                          !
 !       A3        122.3119   estimate D2E/DX2                          !
 !       A4        144.103    estimate D2E/DX2                          !
 !       A5        123.3076   estimate D2E/DX2                          !
 !       A6        115.9793   estimate D2E/DX2                          !
 !       A7        122.312    estimate D2E/DX2                          !
 !       A8         93.5842   estimate D2E/DX2                          !
 !       A9        115.7217   estimate D2E/DX2                          !
 !       A10       115.7217   estimate D2E/DX2                          !
 !       A11       121.709    estimate D2E/DX2                          !
 !       A12       119.464    estimate D2E/DX2                          !
 !       A13       123.3085   estimate D2E/DX2                          !
 !       A14       115.7228   estimate D2E/DX2                          !
 !       A15       115.7229   estimate D2E/DX2                          !
 !       A16       118.8246   estimate D2E/DX2                          !
 !       D4       -179.9999   estimate D2E/DX2                          !
 !       D5        180.0      estimate D2E/DX2                          !
 !       D6       -180.0      estimate D2E/DX2                          !
 !       D7         -0.0001   estimate D2E/DX2                          !
 !       D8        179.9999   estimate D2E/DX2                          !
 !       D9        -64.3857   estimate D2E/DX2                          !
 !       D10       128.7715   estimate D2E/DX2                          !
 !       D11         0.0      estimate D2E/DX2                          !
 !       D12       180.0      estimate D2E/DX2                          !
 !       D13       180.0      estimate D2E/DX2                          !
 !       D14       115.6131   estimate D2E/DX2                          !
 !       D15       128.7741   estimate D2E/DX2                          !
 !       D16      -180.0      estimate D2E/DX2                          !
 ------------------------------------------------------------------------
 Trust Radius=1.00D-01 FncErr=1.00D-07 GrdErr=1.00D-06 EigMax=2.50D+02 EigMin=1.00D-04
 Number of steps in this run=     52 maximum allowed number of steps=    100.
 GradGradGradGradGradGradGradGradGradGradGradGradGradGradGradGradGradGrad

 ---------------------------------------------------------------------------------------------------
                            Z-MATRIX (ANGSTROMS AND DEGREES)
   CD    Cent   Atom    N1       Length/X        N2       Alpha/Y        N3        Beta/Z          J
 ---------------------------------------------------------------------------------------------------
      1      1  C 
      2      2  C        1   1.382517(     1)
      3      3  C        1   1.389211(     2)      2  122.312(    16)
      4      4  C        1   1.519849(     3)      2  144.103(    17)      3 -180.000(    30)      0
      5      5  H        2   1.083266(     4)      1  123.308(    18)      3  180.000(    31)      0
      6      6  C        2   1.398532(     5)      1  115.979(    19)      5 -180.000(    32)      0
      7      7  C        3   1.382522(     6)      1  122.312(    20)      2   -0.000(    33)      0
      8      8  C        3   1.519852(     7)      1   93.584(    21)      7  180.000(    34)      0
      9      9  H        4   1.092575(     8)      1  115.722(    22)      2  -64.386(    35)      0
     10     10  H        4   1.092575(     9)      1  115.722(    23)      9  128.771(    36)      0
     11     11  C        6   1.397047(    10)      2  121.709(    24)      1    0.000(    37)      0
     12     12  H        6   1.082601(    11)      2  119.464(    25)     11  180.000(    38)      0
     13     13  H        7   1.083265(    12)      3  123.309(    26)      1  180.000(    39)      0
     14     14  H        8   1.092573(    13)      3  115.723(    27)      1  115.613(    40)      0
     15     15  H        8   1.092573(    14)      3  115.723(    28)     14  128.774(    41)      0
     16     16  H       11   1.082602(    15)      6  118.825(    29)      2 -180.000(    42)      0
 ---------------------------------------------------------------------------------------------------
                         Z-Matrix orientation:                         
 ---------------------------------------------------------------------
 Center     Atomic      Atomic             Coordinates (Angstroms)
 Number     Number       Type             X           Y           Z
 ---------------------------------------------------------------------
      1          6           0        0.000000    0.000000    0.000000
      2          6           0        0.000000    0.000000    1.382517
      3          6           0        1.174093    0.000000   -0.742571
      4          6           0       -0.891132    0.000002   -1.231189
      5          1           0       -0.905322   -0.000000    1.977374
      6          6           0        1.257214    0.000001    1.995138
      7          6           0        2.423221    0.000002   -0.150080
      8          6           0        0.443581   -0.000004   -2.075351
      9          1           0       -1.513869   -0.887577   -1.365806
     10          1           0       -1.513864    0.887585   -1.365808
     11          6           0        2.437933    0.000002    1.248381
     12          1           0        1.323018    0.000001    3.075737
     13          1           0        3.348676    0.000001   -0.713105
     14          1           0        0.588792    0.887576   -2.695701
     15          1           0        0.588788   -0.887587   -2.695695
     16          1           0        3.386044    0.000002    1.770982
 ---------------------------------------------------------------------
                    Distance matrix (angstroms):
                    1          2          3          4          5
     1  C    0.000000
     2  C    1.382517   0.000000
     3  C    1.389211   2.427858   0.000000
     4  C    1.519849   2.761444   2.122240   0.000000
     5  H    2.174768   1.083266   3.423751   3.208594   0.000000
     6  C    2.358212   1.398532   2.738970   3.876154   2.162610
     7  C    2.427864   2.867203   1.382522   3.486221   3.950350
     8  C    2.122226   3.486203   1.519852   1.579262   4.271314
     9  H    2.223739   3.260808   2.898509   1.092575   3.512118
    10  H    2.223740   3.260809   2.898507   1.092575   3.512121
    11  C    2.738972   2.441620   2.358216   4.151016   3.421810
    12  H    3.348214   2.148807   3.821211   4.842734   2.484331
    13  H    3.423762   3.950349   2.174782   4.271344   5.033406
    14  H    2.898494   4.215011   2.223754   2.263351   4.985759
    15  H    2.898492   4.215008   2.223755   2.263352   4.985756
    16  H    3.821213   3.408254   3.348235   5.225635   4.296326
                    6          7          8          9         10
     6  C    0.000000
     7  C    2.441624   0.000000
     8  C    4.151009   2.761457   0.000000
     9  H    4.445519   4.215028   2.263371   0.000000
    10  H    4.445518   4.215025   2.263372   1.775162   0.000000
    11  C    1.397047   1.398538   3.876162   4.820633   4.820631
    12  H    1.082601   3.408276   5.225621   5.344438   5.344439
    13  H    3.421811   1.083265   3.208627   4.985795   4.985791
    14  H    4.820637   3.260844   1.092573   3.056300   2.487926
    15  H    4.820635   3.260846   1.092573   2.487926   3.056302
    16  H    2.140598   2.148838   4.842764   5.885268   5.885265
                   11         12         13         14         15
    11  C    0.000000
    12  H    2.140623   0.000000
    13  H    2.162609   4.296349   0.000000
    14  H    4.445547   5.885267   3.512183   0.000000
    15  H    4.445547   5.885265   3.512187   1.775162   0.000000
    16  H    1.082602   2.440996   2.484368   5.344498   5.344498
                   16
    16  H    0.000000
 Symmetry turned off by external request.
 Stoichiometry    C8H8
 Framework group  C1[X(C8H8)]
 Deg. of freedom    42
 Full point group                 C1      NOp   1
 Rotational constants (GHZ):           4.4817910           2.0915816           1.4520871
 Standard basis: def2TZVP (5D, 7F)
 The following finite field(s) will be applied:
 An electric field of             -0.0040 -0.0000 -0.0063
   296 basis functions,   472 primitive gaussians,   336 cartesian basis functions
    28 alpha electrons       28 beta electrons
       nuclear repulsion energy       333.0900568258 Hartrees.
 NAtoms=   16 NActive=   16 NUniq=   16 SFac= 1.00D+00 NAtFMM=   60 NAOKFM=F Big=F
 Integral buffers will be    131072 words long.
 Raffenetti 2 integral format.
 Two-electron integral symmetry is turned off.
 One-electron integrals computed using PRISM.
   1 Symmetry operations used in ECPInt.
 ECPInt:  NShTT=    7260 NPrTT=   21936 LenC2=    7147 LenP2D=   17614.
 LDataN:  DoStor=T MaxTD1= 6 Len=  172
 NBasis=   296 RedAO= T EigKep=  8.46D-06  NBF=   296
 NBsUse=   296 1.00D-06 EigRej= -1.00D+00 NBFU=   296
 The nuclear repulsion energy is now       332.7325096191 hartrees.
 Initial guess from the checkpoint file:  "checkpoint.chk"
 B after Tr=     0.000000   -0.000000   -0.000000
         Rot=    1.000000    0.000000   -0.000000   -0.000000 Ang=   0.00 deg.
 Requested convergence on RMS density matrix=1.00D-08 within 128 cycles.
 Requested convergence on MAX density matrix=1.00D-06.
 Requested convergence on             energy=1.00D-06.
 No special actions if energy rises.
 SCF Done:  E(RB3LYP) =  -309.744560428     A.U. after    9 cycles
            NFock=  9  Conv=0.75D-08     -V/T= 2.0054
   1 Symmetry operations used in ECPInt.
 ECPInt:  NShTT=    7260 NPrTT=   21936 LenC2=    7147 LenP2D=   17614.
 LDataN:  DoStor=T MaxTD1= 7 Len=  274
 Calling FoFJK, ICntrl=      2127 FMM=F ISym2X=0 I1Cent= 0 IOpClX= 0 NMat=1 NMatS=1 NMatT=0.
 -------------------------------------------------------------------
 Center     Atomic                   Forces (Hartrees/Bohr)
 Number     Number              X              Y              Z
 -------------------------------------------------------------------
      1        6           0.000756801    0.000000312   -0.000290591
      2        6          -0.000259695    0.000000086    0.000014024
      3        6          -0.000585979   -0.000000248    0.000556410
      4        6           0.000151323   -0.000000515    0.000274500
      5        1           0.000154198   -0.000000001    0.000168726
      6        6          -0.000427021   -0.000000001    0.000225510
      7        6           0.000118243   -0.000000168   -0.000225768
      8        6           0.000181413    0.000000479    0.000255480
      9        1          -0.000257248   -0.000344128   -0.000124503
     10        1          -0.000257035    0.000344116   -0.000124405
     11        6           0.000384796    0.000000014   -0.000289305
     12        1           0.000097053   -0.000000027   -0.000112938
     13        1           0.000086104    0.000000024    0.000209603
     14        1          -0.000000966    0.000344857   -0.000286121
     15        1          -0.000000977   -0.000344833   -0.000285896
     16        1          -0.000141010    0.000000033    0.000035272
 -------------------------------------------------------------------
 Cartesian Forces:  Max     0.000756801 RMS     0.000252180
 -----------------------------------------------------------------------------------------------
                       Internal Coordinate Forces (Hartree/Bohr or radian)
  Cent   Atom   N1       Length/X         N2         Alpha/Y        N3         Beta/Z          J
 -----------------------------------------------------------------------------------------------
      1  C 
      2  C        1   0.000041(     1)
      3  C        1  -0.000290(     2)      2  -0.001134(    16)
      4  C        1   0.000192(     3)      2  -0.000725(    17)      3  -0.000001(    30)     0
      5  H        2  -0.000036(     4)      1   0.000462(    18)      3   0.000000(    31)     0
      6  C        2  -0.000139(     5)      1  -0.000469(    19)      5   0.000000(    32)     0
      7  C        3   0.000178(     6)      1  -0.000191(    20)      2   0.000001(    33)     0
      8  C        3   0.000191(     7)      1   0.000730(    21)      7   0.000001(    34)     0
      9  H        4   0.000442(     8)      1   0.000138(    22)      2   0.000000(    35)     0
     10  H        4   0.000441(     9)      1   0.000137(    23)      9   0.000050(    36)     0
     11  C        6   0.000342(    10)      2  -0.000020(    24)      1   0.000000(    37)     0
     12  H        6  -0.000107(    11)      2   0.000212(    25)     11   0.000000(    38)     0
     13  H        7  -0.000035(    12)      3   0.000458(    26)      1   0.000000(    39)     0
     14  H        8   0.000442(    13)      3   0.000136(    27)      1   0.000000(    40)     0
     15  H        8   0.000442(    14)      3   0.000136(    28)     14   0.000048(    41)     0
     16  H       11  -0.000106(    15)      6  -0.000202(    29)      2  -0.000000(    42)     0
 -----------------------------------------------------------------------------------------------
 Internal  Forces:  Max     0.001133620 RMS     0.000320847

 GradGradGradGradGradGradGradGradGradGradGradGradGradGradGradGradGradGrad
 Berny optimization.
 Search for a local minimum.
 Step number   1 out of a maximum of   52
 All quantities printed in internal units (Hartrees-Bohrs-Radians)
 Second derivative matrix not updated -- first step.
 ITU=  0
     Eigenvalues ---    0.02325   0.03830   0.04165   0.06121   0.07235
     Eigenvalues ---    0.09043   0.11327   0.14936   0.15552   0.16214
     Eigenvalues ---    0.18711   0.21374   0.22755   0.25926   0.28004
     Eigenvalues ---    0.30388   0.32208   0.33447   0.34439   0.34515
     Eigenvalues ---    0.34517   0.34517   0.34517   0.34632   0.35596
     Eigenvalues ---    0.35605   0.35681   0.35683   0.36062   0.45735
     Eigenvalues ---    0.46426   0.46595   0.48709   0.50626   0.52934
     Eigenvalues ---    0.62955   0.90204   1.36238   2.87107   3.01007
     Eigenvalues ---    6.64636  27.44030
 RFO step:  Lambda=-5.66591766D-06 EMin= 2.32515360D-02
 Linear search not attempted -- first point.
 Variable       Old X    -DE/DX   Delta X   Delta X   Delta X     New X
                                 (Linear)    (Quad)   (Total)
    R2        2.61258   0.00004   0.00000   0.00033   0.00033   2.61291
    R3        2.62523  -0.00029   0.00000  -0.00078  -0.00078   2.62444
    R4        2.87210   0.00019   0.00000   0.00059   0.00059   2.87268
    R5        2.04708  -0.00004   0.00000  -0.00010  -0.00010   2.04698
    R6        2.64284  -0.00014   0.00000  -0.00027  -0.00027   2.64257
    R7        2.61259   0.00018   0.00000   0.00034   0.00034   2.61293
    R8        2.87210   0.00019   0.00000   0.00059   0.00059   2.87270
    R9        2.06467   0.00044   0.00000   0.00128   0.00128   2.06595
   R10        2.06467   0.00044   0.00000   0.00128   0.00128   2.06595
   R11        2.64004   0.00034   0.00000   0.00052   0.00052   2.64056
   R12        2.04582  -0.00011   0.00000  -0.00030  -0.00030   2.04552
   R13        2.04707  -0.00004   0.00000  -0.00010  -0.00010   2.04698
   R14        2.06466   0.00044   0.00000   0.00128   0.00128   2.06595
   R15        2.06466   0.00044   0.00000   0.00128   0.00128   2.06595
   R16        2.04582  -0.00011   0.00000  -0.00030  -0.00030   2.04552
    A3        2.13474  -0.00113   0.00000   0.00031   0.00031   2.13506
    A4        2.51507  -0.00073   0.00000  -0.00056  -0.00056   2.51451
    A5        2.15212   0.00046   0.00000   0.00163   0.00163   2.15376
    A6        2.02422  -0.00047   0.00000  -0.00047  -0.00047   2.02375
    A7        2.13475  -0.00019   0.00000   0.00032   0.00032   2.13507
    A8        1.63335   0.00073   0.00000   0.00025   0.00025   1.63360
    A9        2.01972   0.00014   0.00000   0.00063   0.00063   2.02036
   A10        2.01973   0.00014   0.00000   0.00063   0.00063   2.02036
   A11        2.12422  -0.00002   0.00000   0.00016   0.00016   2.12439
   A12        2.08504   0.00021   0.00000   0.00050   0.00050   2.08554
   A13        2.15214   0.00046   0.00000   0.00164   0.00164   2.15378
   A14        2.01974   0.00014   0.00000   0.00064   0.00064   2.02038
   A15        2.01975   0.00014   0.00000   0.00064   0.00064   2.02038
   A16        2.07388  -0.00020   0.00000  -0.00068  -0.00068   2.07320
    D4       -3.14159  -0.00000   0.00000  -0.00001  -0.00001  -3.14160
    D5        3.14159   0.00000   0.00000   0.00000   0.00000   3.14159
    D6       -3.14159   0.00000   0.00000  -0.00000  -0.00000  -3.14159
    D7       -0.00000   0.00000   0.00000   0.00000   0.00000   0.00000
    D8        3.14159   0.00000   0.00000   0.00000   0.00000   3.14159
    D9       -1.12374   0.00000   0.00000  -0.00050  -0.00050  -1.12424
   D10        2.24749   0.00005   0.00000   0.00099   0.00099   2.24848
   D11        0.00000   0.00000   0.00000  -0.00000  -0.00000  -0.00000
   D12        3.14159   0.00000   0.00000   0.00000   0.00000   3.14159
   D13        3.14159   0.00000   0.00000   0.00000   0.00000   3.14159
   D14        2.01783   0.00000   0.00000  -0.00051  -0.00051   2.01732
   D15        2.24753   0.00005   0.00000   0.00100   0.00100   2.24854
   D16       -3.14159  -0.00000   0.00000  -0.00000  -0.00000  -3.14159
         Item               Value     Threshold  Converged?
 Maximum Force            0.001134     0.000450     NO 
 RMS     Force            0.000321     0.000300     NO 
 Maximum Displacement     0.001642     0.001800     YES
 RMS     Displacement     0.000684     0.001200     YES
 Predicted change in Energy=-2.832959D-06
 GradGradGradGradGradGradGradGradGradGradGradGradGradGradGradGradGradGrad

 ---------------------------------------------------------------------------------------------------
                            Z-MATRIX (ANGSTROMS AND DEGREES)
   CD    Cent   Atom    N1       Length/X        N2       Alpha/Y        N3        Beta/Z          J
 ---------------------------------------------------------------------------------------------------
      1      1  C 
      2      2  C        1   1.382694(     1)
      3      3  C        1   1.388796(     2)      2  122.330(    16)
      4      4  C        1   1.520159(     3)      2  144.071(    17)      3 -180.000(    30)      0
      5      5  H        2   1.083214(     4)      1  123.401(    18)      3  180.000(    31)      0
      6      6  C        2   1.398388(     5)      1  115.952(    19)      5 -180.000(    32)      0
      7      7  C        3   1.382702(     6)      1  122.330(    20)      2    0.000(    33)      0
      8      8  C        3   1.520167(     7)      1   93.598(    21)      7  180.000(    34)      0
      9      9  H        4   1.093251(     8)      1  115.758(    22)      2  -64.414(    35)      0
     10     10  H        4   1.093251(     9)      1  115.758(    23)      9  128.828(    36)      0
     11     11  C        6   1.397324(    10)      2  121.718(    24)      1   -0.000(    37)      0
     12     12  H        6   1.082444(    11)      2  119.493(    25)     11  180.000(    38)      0
     13     13  H        7   1.083214(    12)      3  123.403(    26)      1  180.000(    39)      0
     14     14  H        8   1.093251(    13)      3  115.759(    27)      1  115.584(    40)      0
     15     15  H        8   1.093251(    14)      3  115.759(    28)     14  128.832(    41)      0
     16     16  H       11   1.082444(    15)      6  118.786(    29)      2 -180.000(    42)      0
 ---------------------------------------------------------------------------------------------------
                         Z-Matrix orientation:                         
 ---------------------------------------------------------------------
 Center     Atomic      Atomic             Coordinates (Angstroms)
 Number     Number       Type             X           Y           Z
 ---------------------------------------------------------------------
      1          6           0        0.000000    0.000000    0.000000
      2          6           0        0.000000    0.000000    1.382694
      3          6           0        1.173511    0.000000   -0.742715
      4          6           0       -0.892009   -0.000002   -1.230937
      5          1           0       -0.904307   -0.000000    1.979001
      6          6           0        1.257374   -0.000001    1.994658
      7          6           0        2.423174   -0.000002   -0.150931
      8          6           0        0.442761    0.000005   -2.075722
      9          1           0       -1.515104   -0.888076   -1.366126
     10          1           0       -1.515112    0.888066   -1.366122
     11          6           0        2.438095   -0.000002    1.247387
     12          1           0        1.324217   -0.000001    3.075036
     13          1           0        3.349155   -0.000002   -0.712992
     14          1           0        0.587209    0.888081   -2.696733
     15          1           0        0.587213   -0.888064   -2.696742
     16          1           0        3.385875   -0.000003    1.770263
 ---------------------------------------------------------------------
                    Distance matrix (angstroms):
                    1          2          3          4          5
     1  C    0.000000
     2  C    1.382694   0.000000
     3  C    1.388796   2.427857   0.000000
     4  C    1.520159   2.761656   2.122436   0.000000
     5  H    2.175825   1.083214   3.424188   3.209961   0.000000
     6  C    2.357891   1.398388   2.738657   3.876120   2.161738
     7  C    2.427870   2.867713   1.382702   3.486668   3.950790
     8  C    2.122418   3.486643   1.520167   1.579643   4.272631
     9  H    2.224976   3.261936   2.899306   1.093251   3.514488
    10  H    2.224975   3.261934   2.899309   1.093251   3.514483
    11  C    2.738664   2.441847   2.357897   4.151106   3.421536
    12  H    3.348044   2.148854   3.820724   4.842836   2.483468
    13  H    3.424208   3.950790   2.175847   4.272673   5.033763
    14  H    2.899288   4.216068   2.225001   2.263921   4.987564
    15  H    2.899292   4.216073   2.225000   2.263920   4.987571
    16  H    3.820730   3.407984   3.348075   5.225656   4.295257
                    6          7          8          9         10
     6  C    0.000000
     7  C    2.441853   0.000000
     8  C    4.151095   2.761677   0.000000
     9  H    4.446367   4.216090   2.263946   0.000000
    10  H    4.446368   4.216095   2.263946   1.776142   0.000000
    11  C    1.397324   1.398398   3.876134   4.821505   4.821508
    12  H    1.082444   3.408016   5.225637   5.345497   5.345497
    13  H    3.421537   1.083214   3.210010   4.987613   4.987619
    14  H    4.821511   3.261988   1.093251   3.056954   2.488027
    15  H    4.821515   3.261987   1.093251   2.488027   3.056952
    16  H    2.140296   2.148902   4.842884   5.886018   5.886022
                   11         12         13         14         15
    11  C    0.000000
    12  H    2.140333   0.000000
    13  H    2.161740   4.295292   0.000000
    14  H    4.446410   5.886017   3.514579   0.000000
    15  H    4.446411   5.886022   3.514576   1.776145   0.000000
    16  H    1.082444   2.439849   2.483527   5.345585   5.345586
                   16
    16  H    0.000000
 Symmetry turned off by external request.
 Stoichiometry    C8H8
 Framework group  C1[X(C8H8)]
 Deg. of freedom    42
 Full point group                 C1      NOp   1
 Rotational constants (GHZ):           4.4807767           2.0913749           1.4519102
 Standard basis: def2TZVP (5D, 7F)
 The following finite field(s) will be applied:
 An electric field of             -0.0040 -0.0000 -0.0063
   296 basis functions,   472 primitive gaussians,   336 cartesian basis functions
    28 alpha electrons       28 beta electrons
       nuclear repulsion energy       333.0625782315 Hartrees.
 NAtoms=   16 NActive=   16 NUniq=   16 SFac= 1.00D+00 NAtFMM=   60 NAOKFM=F Big=F
 Integral buffers will be    131072 words long.
 Raffenetti 2 integral format.
 Two-electron integral symmetry is turned off.
 One-electron integrals computed using PRISM.
   1 Symmetry operations used in ECPInt.
 ECPInt:  NShTT=    7260 NPrTT=   21936 LenC2=    7147 LenP2D=   17609.
 LDataN:  DoStor=T MaxTD1= 6 Len=  172
 NBasis=   296 RedAO= T EigKep=  8.46D-06  NBF=   296
 NBsUse=   296 1.00D-06 EigRej= -1.00D+00 NBFU=   296
 The nuclear repulsion energy is now       332.7053475524 hartrees.
 Initial guess from the checkpoint file:  "checkpoint.chk"
 B after Tr=    -0.000516   -0.000002   -0.000079
         Rot=    1.000000   -0.000001   -0.000157   -0.000000 Ang=  -0.02 deg.
 Requested convergence on RMS density matrix=1.00D-08 within 128 cycles.
 Requested convergence on MAX density matrix=1.00D-06.
 Requested convergence on             energy=1.00D-06.
 No special actions if energy rises.
 SCF Done:  E(RB3LYP) =  -309.744563698     A.U. after    7 cycles
            NFock=  7  Conv=0.92D-08     -V/T= 2.0054
   1 Symmetry operations used in ECPInt.
 ECPInt:  NShTT=    7260 NPrTT=   21936 LenC2=    7147 LenP2D=   17609.
 LDataN:  DoStor=T MaxTD1= 7 Len=  274
 Calling FoFJK, ICntrl=      2127 FMM=F ISym2X=0 I1Cent= 0 IOpClX= 0 NMat=1 NMatS=1 NMatT=0.
 -------------------------------------------------------------------
 Center     Atomic                   Forces (Hartrees/Bohr)
 Number     Number              X              Y              Z
 -------------------------------------------------------------------
      1        6           0.000204139   -0.000000324   -0.000198912
      2        6          -0.000067826   -0.000000127    0.000039029
      3        6          -0.000265241    0.000000311    0.000093049
      4        6          -0.000050679    0.000000485    0.000106775
      5        1           0.000045279    0.000000016    0.000035688
      6        6          -0.000188094    0.000000035    0.000055722
      7        6           0.000056209    0.000000131   -0.000037956
      8        6           0.000115666   -0.000000475    0.000000886
      9        1          -0.000013130   -0.000000279   -0.000003803
     10        1          -0.000013323    0.000000317   -0.000003917
     11        6           0.000127419   -0.000000028   -0.000146330
     12        1           0.000045234    0.000000010   -0.000000812
     13        1           0.000012351   -0.000000004    0.000053437
     14        1           0.000004110    0.000000796   -0.000013592
     15        1           0.000004105   -0.000000839   -0.000013799
     16        1          -0.000016217   -0.000000025    0.000034536
 -------------------------------------------------------------------
 Cartesian Forces:  Max     0.000265241 RMS     0.000077066
 -----------------------------------------------------------------------------------------------
                       Internal Coordinate Forces (Hartree/Bohr or radian)
  Cent   Atom   N1       Length/X         N2         Alpha/Y        N3         Beta/Z          J
 -----------------------------------------------------------------------------------------------
      1  C 
      2  C        1   0.000018(     1)
      3  C        1  -0.000105(     2)      2  -0.000497(    16)
      4  C        1  -0.000035(     3)      2  -0.000344(    17)      3   0.000001(    30)     0
      5  H        2  -0.000018(     4)      1   0.000112(    18)      3  -0.000000(    31)     0
      6  C        2  -0.000053(     5)      1  -0.000206(    19)      5  -0.000000(    32)     0
      7  C        3   0.000069(     6)      1  -0.000067(    20)      2  -0.000002(    33)     0
      8  C        3  -0.000036(     7)      1   0.000351(    21)      7  -0.000001(    34)     0
      9  H        4   0.000008(     8)      1   0.000017(    22)      2  -0.000000(    35)     0
     10  H        4   0.000008(     9)      1   0.000017(    23)      9  -0.000014(    36)     0
     11  C        6   0.000154(    10)      2  -0.000015(    24)      1  -0.000000(    37)     0
     12  H        6   0.000002(    11)      2   0.000092(    25)     11  -0.000000(    38)     0
     13  H        7  -0.000017(    12)      3   0.000107(    26)      1  -0.000000(    39)     0
     14  H        8   0.000009(    13)      3   0.000014(    27)      1  -0.000000(    40)     0
     15  H        8   0.000009(    14)      3   0.000014(    28)     14  -0.000016(    41)     0
     16  H       11   0.000002(    15)      6  -0.000078(    29)      2   0.000000(    42)     0
 -----------------------------------------------------------------------------------------------
 Internal  Forces:  Max     0.000497052 RMS     0.000121639

 GradGradGradGradGradGradGradGradGradGradGradGradGradGradGradGradGradGrad
 Berny optimization.
 Search for a local minimum.
 Step number   2 out of a maximum of   52
 All quantities printed in internal units (Hartrees-Bohrs-Radians)
 Update second derivatives using D2CorN and points    1    2
 DE= -3.27D-06 DEPred=-2.83D-06 R= 1.15D+00
 TightC=F SS=  1.41D+00  RLast= 4.43D-03 DXNew= 1.6818D-01 1.3296D-02
 Trust test= 1.15D+00 RLast= 4.43D-03 DXMaxT set to 1.00D-01
 ITU=  1  0
     Eigenvalues ---    0.02323   0.03828   0.04141   0.06120   0.07235
     Eigenvalues ---    0.09040   0.11199   0.14934   0.15551   0.16213
     Eigenvalues ---    0.18710   0.20716   0.22753   0.24248   0.27944
     Eigenvalues ---    0.30601   0.32203   0.32801   0.34329   0.34504
     Eigenvalues ---    0.34517   0.34517   0.34517   0.34699   0.35597
     Eigenvalues ---    0.35603   0.35682   0.35701   0.36041   0.45733
     Eigenvalues ---    0.46242   0.46585   0.48342   0.50601   0.52726
     Eigenvalues ---    0.62834   0.90160   1.36238   2.87090   3.01007
     Eigenvalues ---    6.64316  27.43921
 RFO step:  Lambda=-2.49572265D-07 EMin= 2.32339775D-02
 Quartic linear search produced a step of  0.18313.
 Variable       Old X    -DE/DX   Delta X   Delta X   Delta X     New X
                                 (Linear)    (Quad)   (Total)
    R2        2.61291   0.00002   0.00006   0.00011   0.00017   2.61308
    R3        2.62444  -0.00011  -0.00014  -0.00024  -0.00038   2.62406
    R4        2.87268  -0.00003   0.00011  -0.00025  -0.00014   2.87254
    R5        2.04698  -0.00002  -0.00002  -0.00004  -0.00006   2.04692
    R6        2.64257  -0.00005  -0.00005  -0.00007  -0.00012   2.64246
    R7        2.61293   0.00007   0.00006   0.00009   0.00015   2.61308
    R8        2.87270  -0.00004   0.00011  -0.00026  -0.00015   2.87255
    R9        2.06595   0.00001   0.00023  -0.00018   0.00005   2.06600
   R10        2.06595   0.00001   0.00023  -0.00018   0.00005   2.06600
   R11        2.64056   0.00015   0.00010   0.00021   0.00030   2.64086
   R12        2.04552   0.00000  -0.00005   0.00006   0.00000   2.04553
   R13        2.04698  -0.00002  -0.00002  -0.00004  -0.00006   2.04692
   R14        2.06595   0.00001   0.00023  -0.00018   0.00005   2.06600
   R15        2.06595   0.00001   0.00023  -0.00018   0.00005   2.06600
   R16        2.04552   0.00000  -0.00005   0.00006   0.00000   2.04553
    A3        2.13506  -0.00050   0.00006   0.00009   0.00015   2.13520
    A4        2.51451  -0.00034  -0.00010  -0.00017  -0.00028   2.51423
    A5        2.15376   0.00011   0.00030   0.00022   0.00052   2.15428
    A6        2.02375  -0.00021  -0.00009  -0.00010  -0.00019   2.02356
    A7        2.13507  -0.00007   0.00006   0.00006   0.00012   2.13518
    A8        1.63360   0.00035   0.00004   0.00010   0.00014   1.63374
    A9        2.02036   0.00002   0.00012  -0.00003   0.00009   2.02045
   A10        2.02036   0.00002   0.00012  -0.00003   0.00009   2.02045
   A11        2.12439  -0.00001   0.00003   0.00001   0.00004   2.12443
   A12        2.08554   0.00009   0.00009   0.00020   0.00029   2.08583
   A13        2.15378   0.00011   0.00030   0.00020   0.00050   2.15428
   A14        2.02038   0.00001   0.00012  -0.00004   0.00008   2.02046
   A15        2.02038   0.00001   0.00012  -0.00003   0.00009   2.02047
   A16        2.07320  -0.00008  -0.00012  -0.00019  -0.00031   2.07289
    D4       -3.14160   0.00000  -0.00000   0.00002   0.00002  -3.14158
    D5        3.14159  -0.00000   0.00000  -0.00001  -0.00001   3.14158
    D6       -3.14159  -0.00000  -0.00000  -0.00001  -0.00001  -3.14160
    D7        0.00000  -0.00000   0.00000   0.00002   0.00002   0.00002
    D8        3.14159  -0.00000   0.00000   0.00002   0.00002   3.14161
    D9       -1.12424  -0.00000  -0.00009   0.00000  -0.00009  -1.12433
   D10        2.24848  -0.00001   0.00018  -0.00012   0.00006   2.24854
   D11       -0.00000  -0.00000  -0.00000   0.00000   0.00000   0.00000
   D12        3.14159  -0.00000   0.00000  -0.00000  -0.00000   3.14159
   D13        3.14159  -0.00000   0.00000  -0.00000  -0.00000   3.14159
   D14        2.01732  -0.00000  -0.00009   0.00003  -0.00007   2.01725
   D15        2.24854  -0.00002   0.00018  -0.00014   0.00005   2.24859
   D16       -3.14159   0.00000  -0.00000  -0.00000  -0.00000  -3.14159
         Item               Value     Threshold  Converged?
 Maximum Force            0.000497     0.000450     NO 
 RMS     Force            0.000122     0.000300     YES
 Maximum Displacement     0.000522     0.001800     YES
 RMS     Displacement     0.000175     0.001200     YES
 Predicted change in Energy=-1.835952D-07
 GradGradGradGradGradGradGradGradGradGradGradGradGradGradGradGradGradGrad

 ---------------------------------------------------------------------------------------------------
                            Z-MATRIX (ANGSTROMS AND DEGREES)
   CD    Cent   Atom    N1       Length/X        N2       Alpha/Y        N3        Beta/Z          J
 ---------------------------------------------------------------------------------------------------
      1      1  C 
      2      2  C        1   1.382783(     1)
      3      3  C        1   1.388595(     2)      2  122.338(    16)
      4      4  C        1   1.520083(     3)      2  144.055(    17)      3 -179.999(    30)      0
      5      5  H        2   1.083183(     4)      1  123.431(    18)      3  179.999(    31)      0
      6      6  C        2   1.398327(     5)      1  115.941(    19)      5 -180.000(    32)      0
      7      7  C        3   1.382781(     6)      1  122.337(    20)      2    0.001(    33)      0
      8      8  C        3   1.520085(     7)      1   93.606(    21)      7  180.001(    34)      0
      9      9  H        4   1.093278(     8)      1  115.763(    22)      2  -64.419(    35)      0
     10     10  H        4   1.093278(     9)      1  115.763(    23)      9  128.832(    36)      0
     11     11  C        6   1.397485(    10)      2  121.721(    24)      1    0.000(    37)      0
     12     12  H        6   1.082445(    11)      2  119.509(    25)     11  180.000(    38)      0
     13     13  H        7   1.083184(    12)      3  123.431(    26)      1  180.000(    39)      0
     14     14  H        8   1.093279(    13)      3  115.764(    27)      1  115.580(    40)      0
     15     15  H        8   1.093279(    14)      3  115.764(    28)     14  128.834(    41)      0
     16     16  H       11   1.082446(    15)      6  118.768(    29)      2 -180.000(    42)      0
 ---------------------------------------------------------------------------------------------------
                         Z-Matrix orientation:                         
 ---------------------------------------------------------------------
 Center     Atomic      Atomic             Coordinates (Angstroms)
 Number     Number       Type             X           Y           Z
 ---------------------------------------------------------------------
      1          6           0        0.000000    0.000000    0.000000
      2          6           0        0.000000    0.000000    1.382783
      3          6           0        1.173232    0.000000   -0.742780
      4          6           0       -0.892303    0.000014   -1.230629
      5          1           0       -0.903969    0.000012    1.979544
      6          6           0        1.257433   -0.000025    1.994485
      7          6           0        2.423123   -0.000029   -0.151294
      8          6           0        0.442515    0.000066   -2.075714
      9          1           0       -1.515442   -0.888068   -1.365777
     10          1           0       -1.515497    0.888067   -1.365717
     11          6           0        2.438180   -0.000044    1.246956
     12          1           0        1.324791   -0.000030    3.074833
     13          1           0        3.349210   -0.000030   -0.713121
     14          1           0        0.586880    0.888177   -2.696742
     15          1           0        0.586907   -0.887963   -2.696854
     16          1           0        3.385876   -0.000062    1.769988
 ---------------------------------------------------------------------
                    Distance matrix (angstroms):
                    1          2          3          4          5
     1  C    0.000000
     2  C    1.382783   0.000000
     3  C    1.388595   2.427857   0.000000
     4  C    1.520083   2.761544   2.122365   0.000000
     5  H    2.176179   1.083183   3.424297   3.210194   0.000000
     6  C    2.357777   1.398327   2.738560   3.875917   2.161454
     7  C    2.427842   2.867911   1.382781   3.486692   3.950951
     8  C    2.122359   3.486691   1.520085   1.579844   4.272954
     9  H    2.224989   3.261872   2.899269   1.093278   3.514791
    10  H    2.224989   3.261847   2.899306   1.093278   3.514737
    11  C    2.738544   2.441961   2.357783   4.150969   3.421498
    12  H    3.348084   2.148978   3.820620   4.842779   2.483351
    13  H    3.424288   3.950952   2.176180   4.272967   5.033883
    14  H    2.899259   4.216137   2.225002   2.264135   4.987897
    15  H    2.899303   4.216204   2.225008   2.264152   4.987976
    16  H    3.820604   3.407944   3.348103   5.225564   4.294960
                    6          7          8          9         10
     6  C    0.000000
     7  C    2.441966   0.000000
     8  C    4.150977   2.761558   0.000000
     9  H    4.446214   4.216145   2.264153   0.000000
    10  H    4.446213   4.216191   2.264166   1.776135   0.000000
    11  C    1.397485   1.398331   3.875927   4.821420   4.821448
    12  H    1.082445   3.407965   5.225566   5.345517   5.345506
    13  H    3.421500   1.083184   3.210224   4.987927   4.987982
    14  H    4.821427   3.261902   1.093279   3.057168   2.488296
    15  H    4.821483   3.261900   1.093279   2.488301   3.057173
    16  H    2.140249   2.149003   4.842809   5.885957   5.885989
                   11         12         13         14         15
    11  C    0.000000
    12  H    2.140273   0.000000
    13  H    2.161452   4.294981   0.000000
    14  H    4.446234   5.885958   3.514844   0.000000
    15  H    4.446262   5.886023   3.514817   1.776140   0.000000
    16  H    1.082446   2.439404   2.483379   5.345561   5.345584
                   16
    16  H    0.000000
 Symmetry turned off by external request.
 Stoichiometry    C8H8
 Framework group  C1[X(C8H8)]
 Deg. of freedom    42
 Full point group                 C1      NOp   1
 Rotational constants (GHZ):           4.4803469           2.0915424           1.4519456
 Standard basis: def2TZVP (5D, 7F)
 The following finite field(s) will be applied:
 An electric field of             -0.0040 -0.0000 -0.0063
   296 basis functions,   472 primitive gaussians,   336 cartesian basis functions
    28 alpha electrons       28 beta electrons
       nuclear repulsion energy       333.0634328364 Hartrees.
 NAtoms=   16 NActive=   16 NUniq=   16 SFac= 1.00D+00 NAtFMM=   60 NAOKFM=F Big=F
 Integral buffers will be    131072 words long.
 Raffenetti 2 integral format.
 Two-electron integral symmetry is turned off.
 One-electron integrals computed using PRISM.
   1 Symmetry operations used in ECPInt.
 ECPInt:  NShTT=    7260 NPrTT=   21936 LenC2=    7147 LenP2D=   17610.
 LDataN:  DoStor=T MaxTD1= 6 Len=  172
 NBasis=   296 RedAO= T EigKep=  8.46D-06  NBF=   296
 NBsUse=   296 1.00D-06 EigRej= -1.00D+00 NBFU=   296
 The nuclear repulsion energy is now       332.7062762848 hartrees.
 Initial guess from the checkpoint file:  "checkpoint.chk"
 B after Tr=    -0.000163    0.000013    0.000111
         Rot=    1.000000   -0.000008   -0.000070    0.000004 Ang=  -0.01 deg.
 Requested convergence on RMS density matrix=1.00D-08 within 128 cycles.
 Requested convergence on MAX density matrix=1.00D-06.
 Requested convergence on             energy=1.00D-06.
 No special actions if energy rises.
 SCF Done:  E(RB3LYP) =  -309.744563934     A.U. after    6 cycles
            NFock=  6  Conv=0.82D-08     -V/T= 2.0054
   1 Symmetry operations used in ECPInt.
 ECPInt:  NShTT=    7260 NPrTT=   21936 LenC2=    7147 LenP2D=   17610.
 LDataN:  DoStor=T MaxTD1= 7 Len=  274
 Calling FoFJK, ICntrl=      2127 FMM=F ISym2X=0 I1Cent= 0 IOpClX= 0 NMat=1 NMatS=1 NMatT=0.
 -------------------------------------------------------------------
 Center     Atomic                   Forces (Hartrees/Bohr)
 Number     Number              X              Y              Z
 -------------------------------------------------------------------
      1        6           0.000043531   -0.000000689   -0.000058481
      2        6           0.000013217   -0.000001338    0.000030519
      3        6          -0.000074728    0.000001427    0.000016349
      4        6          -0.000030922    0.000001474    0.000025498
      5        1           0.000002023   -0.000000043   -0.000000034
      6        6          -0.000062420    0.000000186    0.000010131
      7        6           0.000024136    0.000000862    0.000024716
      8        6           0.000035360   -0.000001491   -0.000014430
      9        1           0.000003464    0.000007625    0.000000426
     10        1           0.000003559   -0.000007665   -0.000001117
     11        6           0.000034803    0.000000063   -0.000050428
     12        1           0.000014440    0.000000047    0.000000312
     13        1          -0.000000492   -0.000000077    0.000000569
     14        1          -0.000000404   -0.000007689    0.000003338
     15        1          -0.000001781    0.000007512    0.000002904
     16        1          -0.000003785   -0.000000204    0.000009729
 -------------------------------------------------------------------
 Cartesian Forces:  Max     0.000074728 RMS     0.000022775
 -----------------------------------------------------------------------------------------------
                       Internal Coordinate Forces (Hartree/Bohr or radian)
  Cent   Atom   N1       Length/X         N2         Alpha/Y        N3         Beta/Z          J
 -----------------------------------------------------------------------------------------------
      1  C 
      2  C        1   0.000000(     1)
      3  C        1  -0.000033(     2)      2  -0.000177(    16)
      4  C        1  -0.000006(     3)      2  -0.000095(    17)      3   0.000003(    30)     0
      5  H        2  -0.000002(     4)      1   0.000002(    18)      3  -0.000000(    31)     0
      6  C        2  -0.000028(     5)      1  -0.000108(    19)      5  -0.000000(    32)     0
      7  C        3   0.000032(     6)      1  -0.000034(    20)      2  -0.000005(    33)     0
      8  C        3  -0.000009(     7)      1   0.000094(    21)      7  -0.000003(    34)     0
      9  H        4  -0.000008(     8)      1   0.000003(    22)      2   0.000002(    35)     0
     10  H        4  -0.000008(     9)      1   0.000005(    23)      9  -0.000000(    36)     0
     11  C        6   0.000048(    10)      2  -0.000026(    24)      1  -0.000000(    37)     0
     12  H        6   0.000001(    11)      2   0.000029(    25)     11  -0.000000(    38)     0
     13  H        7  -0.000001(    12)      3   0.000000(    26)      1  -0.000000(    39)     0
     14  H        8  -0.000008(    13)      3   0.000002(    27)      1   0.000002(    40)     0
     15  H        8  -0.000008(    14)      3   0.000004(    28)     14  -0.000001(    41)     0
     16  H       11   0.000001(    15)      6  -0.000021(    29)      2   0.000000(    42)     0
 -----------------------------------------------------------------------------------------------
 Internal  Forces:  Max     0.000176789 RMS     0.000040680

 GradGradGradGradGradGradGradGradGradGradGradGradGradGradGradGradGradGrad
 Berny optimization.
 Search for a local minimum.
 Step number   3 out of a maximum of   52
 All quantities printed in internal units (Hartrees-Bohrs-Radians)
 Update second derivatives using D2CorN and points    1    3
 DE= -2.35D-07 DEPred=-1.84D-07 R= 1.28D+00
 Trust test= 1.28D+00 RLast= 1.13D-03 DXMaxT set to 1.00D-01
 ITU=  0  1  0
     Eigenvalues ---    0.02329   0.03836   0.04242   0.06121   0.07235
     Eigenvalues ---    0.09046   0.11312   0.14935   0.15552   0.16213
     Eigenvalues ---    0.18710   0.20345   0.22751   0.23547   0.27973
     Eigenvalues ---    0.30690   0.32201   0.32681   0.34391   0.34516
     Eigenvalues ---    0.34517   0.34517   0.34546   0.35076   0.35601
     Eigenvalues ---    0.35606   0.35682   0.35768   0.36046   0.45730
     Eigenvalues ---    0.46093   0.46583   0.48147   0.50588   0.52643
     Eigenvalues ---    0.62743   0.90130   1.36238   2.87082   3.01007
     Eigenvalues ---    6.64065  27.43823
 RFO step:  Lambda=-1.04427008D-08 EMin= 2.32942572D-02
 Quartic linear search produced a step of  0.26607.
 Variable       Old X    -DE/DX   Delta X   Delta X   Delta X     New X
                                 (Linear)    (Quad)   (Total)
    R2        2.61308   0.00000   0.00004   0.00002   0.00007   2.61315
    R3        2.62406  -0.00003  -0.00010  -0.00003  -0.00013   2.62394
    R4        2.87254  -0.00001  -0.00004   0.00001  -0.00003   2.87251
    R5        2.04692  -0.00000  -0.00002   0.00001  -0.00001   2.04691
    R6        2.64246  -0.00003  -0.00003  -0.00003  -0.00006   2.64240
    R7        2.61308   0.00003   0.00004   0.00003   0.00007   2.61314
    R8        2.87255  -0.00001  -0.00004  -0.00000  -0.00004   2.87250
    R9        2.06600  -0.00001   0.00001  -0.00003  -0.00002   2.06597
   R10        2.06600  -0.00001   0.00001  -0.00003  -0.00002   2.06597
   R11        2.64086   0.00005   0.00008   0.00002   0.00011   2.64097
   R12        2.04553   0.00000   0.00000   0.00000   0.00000   2.04553
   R13        2.04692  -0.00000  -0.00002   0.00001  -0.00000   2.04692
   R14        2.06600  -0.00001   0.00001  -0.00004  -0.00002   2.06598
   R15        2.06600  -0.00001   0.00001  -0.00003  -0.00002   2.06598
   R16        2.04553   0.00000   0.00000   0.00000   0.00000   2.04553
    A3        2.13520  -0.00018   0.00004  -0.00001   0.00003   2.13524
    A4        2.51423  -0.00009  -0.00007  -0.00001  -0.00008   2.51415
    A5        2.15428   0.00000   0.00014  -0.00009   0.00005   2.15433
    A6        2.02356  -0.00011  -0.00005   0.00001  -0.00004   2.02352
    A7        2.13518  -0.00003   0.00003  -0.00001   0.00003   2.13521
    A8        1.63374   0.00009   0.00004   0.00001   0.00005   1.63379
    A9        2.02045   0.00000   0.00002  -0.00000   0.00002   2.02047
   A10        2.02045   0.00001   0.00002   0.00002   0.00005   2.02049
   A11        2.12443  -0.00003   0.00001  -0.00000   0.00001   2.12443
   A12        2.08583   0.00003   0.00008   0.00003   0.00011   2.08594
   A13        2.15428   0.00000   0.00013  -0.00009   0.00004   2.15432
   A14        2.02046   0.00000   0.00002  -0.00000   0.00002   2.02048
   A15        2.02047   0.00000   0.00002   0.00001   0.00003   2.02050
   A16        2.07289  -0.00002  -0.00008  -0.00001  -0.00009   2.07280
    D4       -3.14158   0.00000   0.00000   0.00003   0.00003  -3.14155
    D5        3.14158  -0.00000  -0.00000   0.00001   0.00000   3.14158
    D6       -3.14160  -0.00000  -0.00000   0.00001   0.00001  -3.14159
    D7        0.00002  -0.00000   0.00001  -0.00003  -0.00003  -0.00000
    D8        3.14161  -0.00000   0.00000  -0.00002  -0.00002   3.14159
    D9       -1.12433   0.00000  -0.00002   0.00004   0.00001  -1.12431
   D10        2.24854  -0.00000   0.00002   0.00004   0.00005   2.24859
   D11        0.00000  -0.00000   0.00000  -0.00000  -0.00000   0.00000
   D12        3.14159  -0.00000  -0.00000  -0.00000  -0.00000   3.14159
   D13        3.14159  -0.00000  -0.00000   0.00000   0.00000   3.14159
   D14        2.01725   0.00000  -0.00002   0.00007   0.00005   2.01730
   D15        2.24859  -0.00000   0.00001   0.00003   0.00004   2.24862
   D16       -3.14159   0.00000  -0.00000   0.00000   0.00000  -3.14159
         Item               Value     Threshold  Converged?
 Maximum Force            0.000177     0.000450     YES
 RMS     Force            0.000041     0.000300     YES
 Maximum Displacement     0.000128     0.001800     YES
 RMS     Displacement     0.000048     0.001200     YES
 Predicted change in Energy=-1.128003D-08
 Optimization completed.
    -- Stationary point found.
                       ----------------------------
                       !   Optimized Parameters   !
                       ! (Angstroms and Degrees)  !
 ----------------------                            ----------------------
 !      Name          Value   Derivative information (Atomic Units)     !
 ------------------------------------------------------------------------
 !       R2          1.3828   -DE/DX =    0.0                           !
 !       R3          1.3886   -DE/DX =    0.0                           !
 !       R4          1.5201   -DE/DX =    0.0                           !
 !       R5          1.0832   -DE/DX =    0.0                           !
 !       R6          1.3983   -DE/DX =    0.0                           !
 !       R7          1.3828   -DE/DX =    0.0                           !
 !       R8          1.5201   -DE/DX =    0.0                           !
 !       R9          1.0933   -DE/DX =    0.0                           !
 !       R10         1.0933   -DE/DX =    0.0                           !
 !       R11         1.3975   -DE/DX =    0.0                           !
 !       R12         1.0824   -DE/DX =    0.0                           !
 !       R13         1.0832   -DE/DX =    0.0                           !
 !       R14         1.0933   -DE/DX =    0.0                           !
 !       R15         1.0933   -DE/DX =    0.0                           !
 !       R16         1.0824   -DE/DX =    0.0                           !
 !       A3        122.3381   -DE/DX =   -0.0002                        !
 !       A4        144.0549   -DE/DX =   -0.0001                        !
 !       A5        123.4311   -DE/DX =    0.0                           !
 !       A6        115.9415   -DE/DX =   -0.0001                        !
 !       A7        122.3369   -DE/DX =    0.0                           !
 !       A8         93.6065   -DE/DX =    0.0001                        !
 !       A9        115.763    -DE/DX =    0.0                           !
 !       A10       115.763    -DE/DX =    0.0                           !
 !       A11       121.7207   -DE/DX =    0.0                           !
 !       A12       119.5092   -DE/DX =    0.0                           !
 !       A13       123.4312   -DE/DX =    0.0                           !
 !       A14       115.7639   -DE/DX =    0.0                           !
 !       A15       115.7644   -DE/DX =    0.0                           !
 !       A16       118.7679   -DE/DX =    0.0                           !
 !       D4       -179.9991   -DE/DX =    0.0                           !
 !       D5        179.9992   -DE/DX =    0.0                           !
 !       D6       -180.0004   -DE/DX =    0.0                           !
 !       D7          0.0014   -DE/DX =    0.0                           !
 !       D8        180.0011   -DE/DX =    0.0                           !
 !       D9        -64.4192   -DE/DX =    0.0                           !
 !       D10       128.8318   -DE/DX =    0.0                           !
 !       D11         0.0003   -DE/DX =    0.0                           !
 !       D12       179.9999   -DE/DX =    0.0                           !
 !       D13       180.0      -DE/DX =    0.0                           !
 !       D14       115.5801   -DE/DX =    0.0                           !
 !       D15       128.8345   -DE/DX =    0.0                           !
 !       D16      -180.0001   -DE/DX =    0.0                           !
 ------------------------------------------------------------------------
 GradGradGradGradGradGradGradGradGradGradGradGradGradGradGradGradGradGrad

 ---------------------------------------------------------------------------------------------------
                            Z-MATRIX (ANGSTROMS AND DEGREES)
   CD    Cent   Atom    N1       Length/X        N2       Alpha/Y        N3        Beta/Z          J
 ---------------------------------------------------------------------------------------------------
      1      1  C 
      2      2  C        1   1.382783(     1)
      3      3  C        1   1.388595(     2)      2  122.338(    16)
      4      4  C        1   1.520083(     3)      2  144.055(    17)      3 -179.999(    30)      0
      5      5  H        2   1.083183(     4)      1  123.431(    18)      3  179.999(    31)      0
      6      6  C        2   1.398327(     5)      1  115.941(    19)      5 -180.000(    32)      0
      7      7  C        3   1.382781(     6)      1  122.337(    20)      2    0.001(    33)      0
      8      8  C        3   1.520085(     7)      1   93.606(    21)      7  180.001(    34)      0
      9      9  H        4   1.093278(     8)      1  115.763(    22)      2  -64.419(    35)      0
     10     10  H        4   1.093278(     9)      1  115.763(    23)      9  128.832(    36)      0
     11     11  C        6   1.397485(    10)      2  121.721(    24)      1    0.000(    37)      0
     12     12  H        6   1.082445(    11)      2  119.509(    25)     11  180.000(    38)      0
     13     13  H        7   1.083184(    12)      3  123.431(    26)      1  180.000(    39)      0
     14     14  H        8   1.093279(    13)      3  115.764(    27)      1  115.580(    40)      0
     15     15  H        8   1.093279(    14)      3  115.764(    28)     14  128.834(    41)      0
     16     16  H       11   1.082446(    15)      6  118.768(    29)      2 -180.000(    42)      0
 ---------------------------------------------------------------------------------------------------
                         Z-Matrix orientation:                         
 ---------------------------------------------------------------------
 Center     Atomic      Atomic             Coordinates (Angstroms)
 Number     Number       Type             X           Y           Z
 ---------------------------------------------------------------------
      1          6           0        0.000000    0.000000    0.000000
      2          6           0        0.000000    0.000000    1.382783
      3          6           0        1.173232    0.000000   -0.742780
      4          6           0       -0.892303    0.000014   -1.230629
      5          1           0       -0.903969    0.000012    1.979544
      6          6           0        1.257433   -0.000025    1.994485
      7          6           0        2.423123   -0.000029   -0.151294
      8          6           0        0.442515    0.000066   -2.075714
      9          1           0       -1.515442   -0.888068   -1.365777
     10          1           0       -1.515497    0.888067   -1.365717
     11          6           0        2.438180   -0.000044    1.246956
     12          1           0        1.324791   -0.000030    3.074833
     13          1           0        3.349210   -0.000030   -0.713121
     14          1           0        0.586880    0.888177   -2.696742
     15          1           0        0.586907   -0.887963   -2.696854
     16          1           0        3.385876   -0.000062    1.769988
 ---------------------------------------------------------------------
                    Distance matrix (angstroms):
                    1          2          3          4          5
     1  C    0.000000
     2  C    1.382783   0.000000
     3  C    1.388595   2.427857   0.000000
     4  C    1.520083   2.761544   2.122365   0.000000
     5  H    2.176179   1.083183   3.424297   3.210194   0.000000
     6  C    2.357777   1.398327   2.738560   3.875917   2.161454
     7  C    2.427842   2.867911   1.382781   3.486692   3.950951
     8  C    2.122359   3.486691   1.520085   1.579844   4.272954
     9  H    2.224989   3.261872   2.899269   1.093278   3.514791
    10  H    2.224989   3.261847   2.899306   1.093278   3.514737
    11  C    2.738544   2.441961   2.357783   4.150969   3.421498
    12  H    3.348084   2.148978   3.820620   4.842779   2.483351
    13  H    3.424288   3.950952   2.176180   4.272967   5.033883
    14  H    2.899259   4.216137   2.225002   2.264135   4.987897
    15  H    2.899303   4.216204   2.225008   2.264152   4.987976
    16  H    3.820604   3.407944   3.348103   5.225564   4.294960
                    6          7          8          9         10
     6  C    0.000000
     7  C    2.441966   0.000000
     8  C    4.150977   2.761558   0.000000
     9  H    4.446214   4.216145   2.264153   0.000000
    10  H    4.446213   4.216191   2.264166   1.776135   0.000000
    11  C    1.397485   1.398331   3.875927   4.821420   4.821448
    12  H    1.082445   3.407965   5.225566   5.345517   5.345506
    13  H    3.421500   1.083184   3.210224   4.987927   4.987982
    14  H    4.821427   3.261902   1.093279   3.057168   2.488296
    15  H    4.821483   3.261900   1.093279   2.488301   3.057173
    16  H    2.140249   2.149003   4.842809   5.885957   5.885989
                   11         12         13         14         15
    11  C    0.000000
    12  H    2.140273   0.000000
    13  H    2.161452   4.294981   0.000000
    14  H    4.446234   5.885958   3.514844   0.000000
    15  H    4.446262   5.886023   3.514817   1.776140   0.000000
    16  H    1.082446   2.439404   2.483379   5.345561   5.345584
                   16
    16  H    0.000000
 Symmetry turned off by external request.
 Stoichiometry    C8H8
 Framework group  C1[X(C8H8)]
 Deg. of freedom    42
 Full point group                 C1      NOp   1
 Rotational constants (GHZ):           4.4803469           2.0915424           1.4519456
 1\1\GINC-BHC0108\FOpt\RB3LYP\def2TZVP\C8H8\DHANAWAY\10-Jun-2022\1\\# O
 pt=(Z-matrix, MaxStep=10) B3LYP/Def2TZVP geom=allcheckpoint guess=read
  Field=read NoSymm freq=noraman pop=none\\int_zmat_initalOpt\\0,1\C\C,
 1,R2\C,1,R3,2,A3\C,1,R4,2,A4,3,D4,0\H,2,R5,1,A5,3,D5,0\C,2,R6,1,A6,5,D
 6,0\C,3,R7,1,A7,2,D7,0\C,3,R8,1,A8,7,D8,0\H,4,R9,1,A9,2,D9,0\H,4,R10,1
 ,A10,9,D10,0\C,6,R11,2,A11,1,D11,0\H,6,R12,2,A12,11,D12,0\H,7,R13,3,A1
 3,1,D13,0\H,8,R14,3,A14,1,D14,0\H,8,R15,3,A15,14,D15,0\H,11,R16,6,A16,
 2,D16,0\\R2=1.38278287\R3=1.38859477\R4=1.52008308\R5=1.08318254\R6=1.
 39832712\R7=1.38278123\R8=1.52008548\R9=1.09327775\R10=1.09327793\R11=
 1.39748461\R12=1.08244525\R13=1.08318359\R14=1.09327897\R15=1.09327913
 \R16=1.0824461\A3=122.33813523\A4=144.05491332\A5=123.4310557\A6=115.9
 414933\A7=122.33693176\A8=93.60647791\A9=115.76304047\A10=115.76301733
 \A11=121.72065017\A12=119.50917227\A13=123.43122538\A14=115.76388433\A
 15=115.76435769\A16=118.7678961\D4=-179.99909779\D5=179.9992159\D6=-18
 0.00037775\D7=0.00141869\D8=180.00106961\D9=-64.41919421\D10=128.83183
 207\D11=0.0002696\D12=179.99994852\D13=179.99997972\D14=115.58006721\D
 15=128.8344639\D16=-180.0001059\\Version=ES64L-G16RevA.03\HF=-309.7445
 639\RMSD=8.203e-09\RMSF=2.277e-05\Dipole=0.3524684,0.0000072,0.5581832
 \PG=C01 [X(C8H8)]\\@


 ERROR IS THE FORCE THAT WELDS MEN TOGETHER....
 TRUTH IS COMMUNICATED TO MEN ONLY BY DEEDS OF TRUTH.
           TOLSTOI,MY RELIGION
 Job cpu time:       0 days  0 hours 31 minutes  5.2 seconds.
 Elapsed time:       0 days  0 hours  2 minutes 36.4 seconds.
 File lengths (MBytes):  RWF=     51 Int=      0 D2E=      0 Chk=     32 Scr=      1
 Normal termination of Gaussian 16 at Fri Jun 10 03:36:00 2022.
 Link1:  Proceeding to internal job step number  2.
 --------------------------------------------------------------------
 #N Geom=AllCheck Guess=TCheck SCRF=Check GenChk RB3LYP/def2TZVP Freq
 --------------------------------------------------------------------
 1/8=10,10=4,29=7,30=1,38=1,40=1/1,3;
 2/12=2,15=1,40=1/2;
 3/5=44,7=101,11=2,14=-4,25=1,30=1,70=2,71=2,74=-5,116=1,140=1/1,2,3;
 4/5=101/1;
 5/5=2,38=6,98=1/2;
 8/6=4,10=90,11=11/1;
 11/6=1,8=1,9=11,15=111,16=1,31=1/1,2,10;
 10/6=1,31=1/2;
 7/8=1,10=1,25=1,30=1/1,2,3,16;
 1/8=10,10=4,30=1/3;
 99//99;
 Structure from the checkpoint file:  "checkpoint.chk"
 ------------------
 int_zmat_initalOpt
 ------------------
 Charge =  0 Multiplicity = 1
 Z-Matrix found in chk file.
 C
 C,1,R2
 C,1,R3,2,A3
 C,1,R4,2,A4,3,D4,0
 H,2,R5,1,A5,3,D5,0
 C,2,R6,1,A6,5,D6,0
 C,3,R7,1,A7,2,D7,0
 C,3,R8,1,A8,7,D8,0
 H,4,R9,1,A9,2,D9,0
 H,4,R10,1,A10,9,D10,0
 C,6,R11,2,A11,1,D11,0
 H,6,R12,2,A12,11,D12,0
 H,7,R13,3,A13,1,D13,0
 H,8,R14,3,A14,1,D14,0
 H,8,R15,3,A15,14,D15,0
 H,11,R16,6,A16,2,D16,0
      Variables:
 R2=1.38278287
 R3=1.38859477
 R4=1.52008308
 R5=1.08318254
 R6=1.39832712
 R7=1.38278123
 R8=1.52008548
 R9=1.09327775
 R10=1.09327793
 R11=1.39748461
 R12=1.08244525
 R13=1.08318359
 R14=1.09327897
 R15=1.09327913
 R16=1.0824461
 A3=122.33813523
 A4=144.05491332
 A5=123.4310557
 A6=115.9414933
 A7=122.33693176
 A8=93.60647791
 A9=115.76304047
 A10=115.76301733
 A11=121.72065017
 A12=119.50917227
 A13=123.43122538
 A14=115.76388433
 A15=115.76435769
 A16=118.7678961
 D4=-179.99909779
 D5=179.9992159
 D6=-180.00037775
 D7=0.00141869
 D8=180.00106961
 D9=-64.41919421
 D10=128.83183207
 D11=0.0002696
 D12=179.99994852
 D13=179.99997972
 D14=115.58006721
 D15=128.8344639
 D16=-180.0001059
 Recover connectivity data from disk.

 GradGradGradGradGradGradGradGradGradGradGradGradGradGradGradGradGradGrad
 Berny optimization.
 Initialization pass.
                       ----------------------------
                       !    Initial Parameters    !
                       ! (Angstroms and Degrees)  !
 ----------------------                            ----------------------
 !      Name          Value   Derivative information (Atomic Units)     !
 ------------------------------------------------------------------------
 !       R2          1.3828   calculate D2E/DX2 analytically            !
 !       R3          1.3886   calculate D2E/DX2 analytically            !
 !       R4          1.5201   calculate D2E/DX2 analytically            !
 !       R5          1.0832   calculate D2E/DX2 analytically            !
 !       R6          1.3983   calculate D2E/DX2 analytically            !
 !       R7          1.3828   calculate D2E/DX2 analytically            !
 !       R8          1.5201   calculate D2E/DX2 analytically            !
 !       R9          1.0933   calculate D2E/DX2 analytically            !
 !       R10         1.0933   calculate D2E/DX2 analytically            !
 !       R11         1.3975   calculate D2E/DX2 analytically            !
 !       R12         1.0824   calculate D2E/DX2 analytically            !
 !       R13         1.0832   calculate D2E/DX2 analytically            !
 !       R14         1.0933   calculate D2E/DX2 analytically            !
 !       R15         1.0933   calculate D2E/DX2 analytically            !
 !       R16         1.0824   calculate D2E/DX2 analytically            !
 !       A3        122.3381   calculate D2E/DX2 analytically            !
 !       A4        144.0549   calculate D2E/DX2 analytically            !
 !       A5        123.4311   calculate D2E/DX2 analytically            !
 !       A6        115.9415   calculate D2E/DX2 analytically            !
 !       A7        122.3369   calculate D2E/DX2 analytically            !
 !       A8         93.6065   calculate D2E/DX2 analytically            !
 !       A9        115.763    calculate D2E/DX2 analytically            !
 !       A10       115.763    calculate D2E/DX2 analytically            !
 !       A11       121.7207   calculate D2E/DX2 analytically            !
 !       A12       119.5092   calculate D2E/DX2 analytically            !
 !       A13       123.4312   calculate D2E/DX2 analytically            !
 !       A14       115.7639   calculate D2E/DX2 analytically            !
 !       A15       115.7644   calculate D2E/DX2 analytically            !
 !       A16       118.7679   calculate D2E/DX2 analytically            !
 !       D4       -179.9991   calculate D2E/DX2 analytically            !
 !       D5        179.9992   calculate D2E/DX2 analytically            !
 !       D6       -180.0004   calculate D2E/DX2 analytically            !
 !       D7          0.0014   calculate D2E/DX2 analytically            !
 !       D8        180.0011   calculate D2E/DX2 analytically            !
 !       D9        -64.4192   calculate D2E/DX2 analytically            !
 !       D10       128.8318   calculate D2E/DX2 analytically            !
 !       D11         0.0003   calculate D2E/DX2 analytically            !
 !       D12       179.9999   calculate D2E/DX2 analytically            !
 !       D13       180.0      calculate D2E/DX2 analytically            !
 !       D14       115.5801   calculate D2E/DX2 analytically            !
 !       D15       128.8345   calculate D2E/DX2 analytically            !
 !       D16      -180.0001   calculate D2E/DX2 analytically            !
 ------------------------------------------------------------------------
 Trust Radius=1.00D-01 FncErr=1.00D-07 GrdErr=1.00D-07 EigMax=2.50D+02 EigMin=1.00D-04
 Number of steps in this run=      2 maximum allowed number of steps=      2.
 GradGradGradGradGradGradGradGradGradGradGradGradGradGradGradGradGradGrad

                          Input orientation:                          
 ---------------------------------------------------------------------
 Center     Atomic      Atomic             Coordinates (Angstroms)
 Number     Number       Type             X           Y           Z
 ---------------------------------------------------------------------
      1          6           0        0.000000    0.000000    0.000000
      2          6           0        0.000000    0.000000    1.382783
      3          6           0        1.173232    0.000000   -0.742780
      4          6           0       -0.892303    0.000014   -1.230629
      5          1           0       -0.903969    0.000012    1.979544
      6          6           0        1.257433   -0.000025    1.994485
      7          6           0        2.423123   -0.000029   -0.151294
      8          6           0        0.442515    0.000066   -2.075714
      9          1           0       -1.515442   -0.888068   -1.365777
     10          1           0       -1.515497    0.888067   -1.365717
     11          6           0        2.438180   -0.000044    1.246956
     12          1           0        1.324791   -0.000030    3.074833
     13          1           0        3.349210   -0.000030   -0.713121
     14          1           0        0.586880    0.888177   -2.696742
     15          1           0        0.586907   -0.887963   -2.696854
     16          1           0        3.385876   -0.000062    1.769988
 ---------------------------------------------------------------------
                    Distance matrix (angstroms):
                    1          2          3          4          5
     1  C    0.000000
     2  C    1.382783   0.000000
     3  C    1.388595   2.427857   0.000000
     4  C    1.520083   2.761544   2.122365   0.000000
     5  H    2.176179   1.083183   3.424297   3.210194   0.000000
     6  C    2.357777   1.398327   2.738560   3.875917   2.161454
     7  C    2.427842   2.867911   1.382781   3.486692   3.950951
     8  C    2.122359   3.486691   1.520085   1.579844   4.272954
     9  H    2.224989   3.261872   2.899269   1.093278   3.514791
    10  H    2.224989   3.261847   2.899306   1.093278   3.514737
    11  C    2.738544   2.441961   2.357783   4.150969   3.421498
    12  H    3.348084   2.148978   3.820620   4.842779   2.483351
    13  H    3.424288   3.950952   2.176180   4.272967   5.033883
    14  H    2.899259   4.216137   2.225002   2.264135   4.987897
    15  H    2.899303   4.216204   2.225008   2.264152   4.987976
    16  H    3.820604   3.407944   3.348103   5.225564   4.294960
                    6          7          8          9         10
     6  C    0.000000
     7  C    2.441966   0.000000
     8  C    4.150977   2.761558   0.000000
     9  H    4.446214   4.216145   2.264153   0.000000
    10  H    4.446213   4.216191   2.264166   1.776135   0.000000
    11  C    1.397485   1.398331   3.875927   4.821420   4.821448
    12  H    1.082445   3.407965   5.225566   5.345517   5.345506
    13  H    3.421500   1.083184   3.210224   4.987927   4.987982
    14  H    4.821427   3.261902   1.093279   3.057168   2.488296
    15  H    4.821483   3.261900   1.093279   2.488301   3.057173
    16  H    2.140249   2.149003   4.842809   5.885957   5.885989
                   11         12         13         14         15
    11  C    0.000000
    12  H    2.140273   0.000000
    13  H    2.161452   4.294981   0.000000
    14  H    4.446234   5.885958   3.514844   0.000000
    15  H    4.446262   5.886023   3.514817   1.776140   0.000000
    16  H    1.082446   2.439404   2.483379   5.345561   5.345584
                   16
    16  H    0.000000
 Symmetry turned off by external request.
 Stoichiometry    C8H8
 Framework group  C1[X(C8H8)]
 Deg. of freedom    42
 Full point group                 C1      NOp   1
 Rotational constants (GHZ):           4.4803469           2.0915424           1.4519456
 Standard basis: def2TZVP (5D, 7F)
 The following finite field(s) will be applied:
 An electric field of             -0.0040 -0.0000 -0.0063
   296 basis functions,   472 primitive gaussians,   336 cartesian basis functions
    28 alpha electrons       28 beta electrons
       nuclear repulsion energy       333.0634328364 Hartrees.
 NAtoms=   16 NActive=   16 NUniq=   16 SFac= 1.00D+00 NAtFMM=   60 NAOKFM=F Big=F
 Integral buffers will be    131072 words long.
 Raffenetti 2 integral format.
 Two-electron integral symmetry is turned off.
 One-electron integrals computed using PRISM.
   1 Symmetry operations used in ECPInt.
 ECPInt:  NShTT=    7260 NPrTT=   21936 LenC2=    7147 LenP2D=   17610.
 LDataN:  DoStor=T MaxTD1= 6 Len=  172
 NBasis=   296 RedAO= T EigKep=  8.46D-06  NBF=   296
 NBsUse=   296 1.00D-06 EigRej= -1.00D+00 NBFU=   296
 The nuclear repulsion energy is now       332.7062762848 hartrees.
 Initial guess from the checkpoint file:  "checkpoint.chk"
 B after Tr=     0.000000    0.000000    0.000000
         Rot=    1.000000    0.000000    0.000000    0.000000 Ang=   0.00 deg.
 Requested convergence on RMS density matrix=1.00D-08 within 128 cycles.
 Requested convergence on MAX density matrix=1.00D-06.
 Requested convergence on             energy=1.00D-06.
 No special actions if energy rises.
 SCF Done:  E(RB3LYP) =  -309.744563934     A.U. after    1 cycles
            NFock=  1  Conv=0.36D-08     -V/T= 2.0054
 DoSCS=F DFT=T ScalE2(SS,OS)=  1.000000  1.000000
 Range of M.O.s used for correlation:     1   296
 NBasis=   296 NAE=    28 NBE=    28 NFC=     0 NFV=     0
 NROrb=    296 NOA=    28 NOB=    28 NVA=   268 NVB=   268

 **** Warning!!: The largest alpha MO coefficient is  0.75720693D+02

   1 Symmetry operations used in ECPInt.
 ECPInt:  NShTT=    7260 NPrTT=   21936 LenC2=    7147 LenP2D=   17610.
 LDataN:  DoStor=T MaxTD1= 7 Len=  274
 Symmetrizing basis deriv contribution to polar:
 IMax=3 JMax=2 DiffMx= 0.00D+00
 G2DrvN: will do    17 centers at a time, making    1 passes.
 Calling FoFCou, ICntrl=  3107 FMM=F I1Cent=   0 AccDes= 0.00D+00.
 End of G2Drv F.D. properties file   721 does not exist.
 End of G2Drv F.D. properties file   722 does not exist.
 End of G2Drv F.D. properties file   788 does not exist.
          IDoAtm=1111111111111111
          Differentiating once with respect to electric field.
                with respect to dipole field.
          Differentiating once with respect to nuclear coordinates.
[...]
     6          0.00000000          0.00000000          0.00000000
     6         -1.39517265         -0.00002895          2.20945359
     6          2.62406199          0.00000844         -0.00309270
     6         -0.18409487          0.00005772         -2.86663553
     1         -3.44167116         -0.00001259          2.25090833
     6         -0.00318983         -0.00009756          4.45555106
     6          4.02439084         -0.00006618          2.20309287
     6          2.80137575          0.00016528         -2.87016019
     1         -1.04340155         -1.67816681         -3.71132007
     1         -1.04355952          1.67824121         -3.71124174
     6          2.63767152         -0.00012373          4.45245140
     1         -0.98559073         -0.00012994          6.24972533
     1          6.07098249         -0.00006160          2.23977261
     1          3.65863514          1.67846411         -3.71678078
     1          3.65880152         -1.67795364         -3.71696962
     1          3.62421086         -0.00017392          6.24435528

 Electric dipole moment (dipole orientation):
 (Debye = 10**-18 statcoulomb cm , SI units = C m)
                  (au)            (Debye)         (10**-30 SI)
   Tot        0.660152D+00      0.167794D+01      0.559700D+01
   x          0.000000D+00      0.000000D+00      0.000000D+00
   y          0.000000D+00      0.000000D+00      0.000000D+00
   z          0.660152D+00      0.167794D+01      0.559700D+01

 Dipole polarizability, Alpha (dipole orientation).
 (esu units = cm**3 , SI units = C**2 m**2 J**-1)
 Alpha(0;0):
               (au)            (10**-24 esu)      (10**-40 SI)
   iso        0.882676D+02      0.130799D+02      0.145534D+02
   aniso      0.514602D+02      0.762562D+01      0.848464D+01
   xx         0.956719D+02      0.141771D+02      0.157742D+02
   yx        -0.125996D-03     -0.186706D-04     -0.207739D-04
   yy         0.555552D+02      0.823243D+01      0.915981D+01
   zx         0.204953D-01      0.303709D-02      0.337922D-02
   zy        -0.163555D-02     -0.242363D-03     -0.269665D-03
   zz         0.113576D+03      0.168302D+02      0.187261D+02

 ----------------------------------------------------------------------
 1\1\GINC-BHC0108\Freq\RB3LYP\def2TZVP\C8H8\DHANAWAY\10-Jun-2022\1\\#N 
 Geom=AllCheck Guess=TCheck SCRF=Check GenChk RB3LYP/def2TZVP Freq\\int
 _zmat_initalOpt\\0,1\C\C,1,R2\C,1,R3,2,A3\C,1,R4,2,A4,3,D4,0\H,2,R5,1,
 A5,3,D5,0\C,2,R6,1,A6,5,D6,0\C,3,R7,1,A7,2,D7,0\C,3,R8,1,A8,7,D8,0\H,4
 ,R9,1,A9,2,D9,0\H,4,R10,1,A10,9,D10,0\C,6,R11,2,A11,1,D11,0\H,6,R12,2,
 A12,11,D12,0\H,7,R13,3,A13,1,D13,0\H,8,R14,3,A14,1,D14,0\H,8,R15,3,A15
 ,14,D15,0\H,11,R16,6,A16,2,D16,0\\R2=1.38278287\R3=1.38859477\R4=1.520
 08308\R5=1.08318254\R6=1.39832712\R7=1.38278123\R8=1.52008548\R9=1.093
 27775\R10=1.09327793\R11=1.39748461\R12=1.08244525\R13=1.08318359\R14=
 1.09327897\R15=1.09327913\R16=1.0824461\A3=122.33813523\A4=144.0549133
 2\A5=123.4310557\A6=115.9414933\A7=122.33693176\A8=93.60647791\A9=115.
 76304047\A10=115.76301733\A11=121.72065017\A12=119.50917227\A13=123.43
 122538\A14=115.76388433\A15=115.76435769\A16=118.7678961\D4=-179.99909
 779\D5=179.9992159\D6=-180.00037775\D7=0.00141869\D8=180.00106961\D9=-
 64.41919421\D10=128.83183207\D11=0.0002696\D12=179.99994852\D13=179.99
 997972\D14=115.58006721\D15=128.8344639\D16=-180.0001059\\Version=ES64
 L-G16RevA.03\HF=-309.7445639\RMSD=3.570e-09\RMSF=2.281e-05\ZeroPoint=0
 .1339703\Thermal=0.1399547\Dipole=0.3524675,0.0000073,0.5581822\Dipole
 Deriv=0.0291859,0.000001,0.2314228,0.0000179,-0.1074911,0.0000182,-0.0
 028747,0.0000022,-0.0554802,0.0655801,-0.0000036,-0.121723,-0.0000064,
 -0.094591,-0.0000034,-0.0739688,0.0000007,0.0530094,-0.1283965,0.00000
 34,-0.0774386,-0.0000125,-0.1075644,-0.0000428,0.1569237,-0.0000168,0.
 1019572,0.1527701,-0.000012,0.0264261,-0.0000171,0.2441057,-0.0000043,
 0.0881521,0.0000039,0.03071,-0.0541536,0.0000026,0.0852135,-0.0000002,
 0.126237,-0.000001,0.0653792,0.,0.0226498,-0.098368,0.0000004,-0.08659
 68,-0.0000019,-0.1270105,0.0000039,0.0349597,0.0000007,0.0633499,0.130
 9862,-0.0000003,-0.0429937,0.0000037,-0.0946078,0.0000098,-0.0907682,0
 .0000021,-0.0123686,0.0086914,-0.0000048,0.0200922,0.0000038,0.2441721
 ,0.000031,-0.0416426,0.0000177,0.1748804,-0.1045238,-0.085827,-0.06257
 73,-0.1664844,-0.0897353,-0.0644934,-0.0736871,-0.0223309,-0.0159627,-
 0.1045405,0.0858346,-0.0625755,0.1664941,-0.0897296,0.0644895,-0.07367
 39,0.0223232,-0.0159573,0.0537278,-0.000005,0.1069389,-0.0000047,-0.12
 70452,-0.0000008,-0.0146448,0.0000007,-0.0887214,0.0693064,0.0000013,-
 0.0118317,0.0000038,0.1382932,0.0000002,-0.0046973,0.0000008,-0.037333
 3,-0.0497696,0.0000014,0.0675823,-0.0000012,0.126224,0.000002,0.087435
 ,0.,0.0180612,0.0205071,-0.016545,-0.0145116,-0.0129326,-0.0897867,0.1
 781257,-0.0034143,0.087155,-0.1410742,0.0205046,0.0165497,-0.0144985,0
 .0129343,-0.0897619,-0.1781333,-0.0034105,-0.0871611,-0.1411105,-0.011
 5075,0.0000032,-0.0429293,0.0000035,0.1382915,-0.0000013,-0.0500675,0.
 000002,0.0433905\Polar=100.7942921,-0.0007452,55.5551585,8.091466,-0.0
 007037,108.4534715\PG=C01 [X(C8H8)]\NImag=0\\0.56535415,-0.00000319,0.
 15605690,-0.03332406,-0.00000409,0.76622671,-0.13163477,0.00000066,0.0
 3266592,0.69155632,0.00000183,-0.05991570,-0.00000126,-0.00000859,0.13
 049202,-0.01685748,-0.00000038,-0.34021756,-0.06673049,0.00000031,0.68
 226485,-0.25777441,0.00000058,0.06240255,0.03626465,-0.00000161,0.0731
 5705,0.75524936,-0.00000134,-0.07673006,0.00000107,-0.00000064,0.00951
 877,-0.00000089,-0.00000947,0.15601831,0.15103253,-0.00000030,-0.15677
 858,0.02083046,0.00000040,-0.03384803,0.05653979,-0.00001127,0.5763393
 1,-0.09778838,0.00000094,-0.04513105,0.00520165,0.00000011,-0.00174575
 ,-0.08573712,-0.00000010,-0.02247725,0.53922649,0.00000199,-0.06909156
 ,0.00000112,-0.00000040,-0.00218642,-0.00000022,0.00000182,0.01514594,
 0.00000109,-0.00000535,0.56871474,-0.08130421,0.00000051,-0.13724058,-
 0.01284734,-0.00000003,-0.00696742,-0.01501404,0.00000040,-0.00963085,
 0.06578293,0.00000906,0.33333328,0.00464631,-0.00000006,-0.00056378,-0
 .24956429,0.00000297,0.12493804,0.00205019,0.00000017,-0.00154085,-0.0
 0007981,-0.00000009,0.00063051,0.26396638,0.00000007,0.00273451,0.0000
 0037,0.00000274,-0.03628420,-0.00000188,0.,0.00906140,0.00000008,-0.00
 000005,-0.00355398,-0.00000013,-0.00000333,0.02453176,0.02977367,-0.00
 000039,-0.00965150,0.12745709,-0.00000178,-0.14412871,-0.00174340,0.00
 000002,-0.00372767,-0.00065563,-0.00000001,0.00048169,-0.13828752,0.00
 000185,0.14713530,0.03179761,0.00000059,-0.08475486,-0.28058364,0.0000
 0369,-0.03928425,-0.07181111,0.00000060,0.00568566,0.00422512,0.000000
 36,0.00429899,-0.01851337,0.00000057,-0.01246052,0.63624187,-0.0000004
 9,0.00733498,0.00000133,0.00000455,-0.06132556,0.00000145,0.00000108,-
 0.00707572,-0.00000020,0.00000006,0.00732100,0.00000002,0.00000023,0.0
 0267309,0.00000014,-0.00000924,0.13797697,-0.03636570,0.00000068,-0.02
 952723,-0.10506458,0.00000238,-0.16198636,0.00498770,-0.00000038,-0.00
 178045,0.00235059,-0.00000002,-0.00271277,0.01797595,-0.00000029,0.011
 93053,0.00846380,-0.00000241,0.73006835,-0.05735234,0.00000082,0.02885
 239,-0.01715886,0.00000052,-0.03234847,-0.30817020,0.00000580,-0.10040
 480,-0.00473244,0.00000011,0.00015170,-0.00000272,-0.00000010,-0.00071
 382,0.03906466,-0.00000065,0.02497035,0.73556055,0.00000067,0.00951764
 ,-0.00000084,0.00000051,-0.00509028,0.00000078,0.00000513,-0.05989792,
 0.00000333,0.,0.00858913,0.00000054,-0.00000002,-0.00066176,0.00000002
 ,-0.00000094,0.00664852,0.00000007,-0.00000778,0.13047769,-0.02347135,
 -0.00000004,0.05977935,-0.02823013,0.00000069,-0.04583175,-0.05088189,
 0.00000390,-0.16368154,-0.00097402,0.00000012,-0.00037363,-0.00055866,
 -0.00000003,-0.00086783,0.07188996,-0.00000078,-0.03090832,-0.04589712
 ,-0.00000754,0.63824059,-0.00905797,-0.00000054,0.02126158,-0.00085332
 ,-0.00000018,0.00198561,-0.08114443,0.00000290,-0.07342186,-0.10638545
 ,-0.00000270,0.04661028,0.00025640,0.00000001,0.00048252,-0.00053127,0
 .,0.00034409,0.00090112,0.00000093,-0.01488183,0.32012759,-0.00000012,
 0.01513731,0.00000197,0.00000022,0.00858792,0.00000026,0.00000162,-0.0
 6908147,0.00000419,-0.00000199,-0.08491239,0.00000035,0.00000001,-0.00
 050618,0.00000005,-0.00000038,-0.00123449,0.00000005,0.00000011,-0.002
 18734,0.00000020,-0.00000121,0.56869507,0.01380381,0.00000397,-0.08630
 945,0.00086074,0.00000026,-0.00425475,-0.03724836,0.00000336,-0.153885
 12,0.03391855,-0.00000005,-0.06828740,0.00004688,-0.00000006,-0.000794
 67,0.00302457,-0.00000018,-0.00119097,-0.00377841,0.00000017,-0.002666
 60,-0.03789651,0.00000382,0.55240458,-0.00954722,-0.01027996,-0.002869
 11,0.00065736,-0.00005086,0.00129602,-0.00334271,0.00008254,-0.0014414
 8,-0.12341700,-0.11724071,-0.01530950,0.00011904,-0.00060957,-0.000244
 22,-0.00087025,0.00072950,-0.00014226,-0.00040538,0.00199495,-0.000233
 84,-0.00963352,-0.01717132,-0.00346469,0.13595030,0.00045959,0.0032452
 8,-0.00134384,-0.00012204,0.00031374,0.00060997,0.00019112,0.00034439,
 -0.00103048,-0.11608414,-0.22042305,-0.02365134,-0.00004676,-0.0000871
 7,-0.00006348,-0.00066028,-0.00003020,-0.00009943,0.00033083,-0.000256
 78,0.00038466,0.00276723,0.00142715,0.00076322,0.12798637,0.23615849,-
 0.01358093,-0.02295785,-0.00118466,-0.00027065,0.00001373,0.00141986,-
 0.00097996,0.00071006,-0.00286972,-0.01650288,-0.02636295,-0.04910140,
 0.00019830,-0.00062675,-0.00030112,-0.00073846,0.00130687,-0.00002159,
 -0.00033069,0.00042073,0.00099831,0.00826509,0.01716322,0.00172955,0.0
 2010836,0.02785179,0.04859439,-0.00954805,0.01027975,-0.00286862,0.000
 65744,0.00005077,0.00129605,-0.00334357,-0.00008239,-0.00144206,-0.123
 43116,0.11724706,-0.01530252,0.00011906,0.00060958,-0.00024427,-0.0008
 7033,-0.00072948,-0.00014230,-0.00040539,-0.00199488,-0.00023384,-0.00
 963319,0.01717036,-0.00346405,0.01129402,-0.01461711,0.00231457,0.1359
 6563,-0.00045932,0.00324411,0.00134377,0.00012204,0.00031377,-0.000610
 02,-0.00019093,0.00034437,0.00103074,0.11609061,-0.22041174,0.02363931
 ,0.00004677,-0.00008719,0.00006350,0.00066040,-0.00003017,0.00009945,-
 0.00033104,-0.00025674,-0.00038500,-0.00276857,0.00142927,-0.00076346,
 0.01461901,-0.02203808,0.00287523,-0.12799355,0.23614630,-0.01358161,0
 .02295737,-0.00118235,-0.00027048,-0.00001379,0.00141973,-0.00098036,-
 0.00070981,-0.00286949,-0.01649607,0.02635043,-0.04909986,0.00019835,0
 .00062671,-0.00030115,-0.00073837,-0.00130677,-0.00002154,-0.00033080,
 -0.00042086,0.00099842,0.00826466,-0.01716252,0.00172861,0.00231556,-0
 .00287645,0.00104267,0.02010205,-0.02783846,0.04859104,-0.01871963,0.0
 0000003,0.03011723,-0.05555218,0.00000108,-0.01981056,0.02851726,0.000
 00088,-0.03791247,-0.00237279,-0.00000007,-0.00052612,-0.00306497,0.00
 000015,-0.00308332,-0.25960295,0.00000330,0.11560782,-0.12787078,0.000
 00076,-0.03280243,-0.00401490,0.00000018,-0.00154926,0.00013942,0.0002
 4347,0.00006652,0.00013945,-0.00024354,0.00006650,0.70635327,-0.000000
 17,-0.00708144,-0.00000004,0.00000083,0.00664957,-0.00000024,0.0000007
 1,0.00732882,0.00000103,0.00000009,-0.00123446,0.,0.00000020,0.0076234
 6,0.00000004,0.00000366,-0.06586534,-0.00000169,0.00000030,-0.06133328
 ,0.00000293,0.00000021,0.00732028,0.00000022,-0.00009246,-0.00004469,-
 0.00024642,0.00009246,-0.00004470,0.00024643,-0.00001015,0.13799384,0.
 03081973,0.00000010,-0.05487086,0.02710844,-0.00000087,0.06371584,-0.0
 8630606,0.00000125,-0.02625233,0.00215255,0.00000021,0.00064864,-0.003
 98327,0.00000020,-0.00046983,0.04791110,-0.00000069,-0.18222190,0.0329
 7624,0.00000290,-0.31468661,0.00040248,-0.00000035,0.00552853,-0.00033
 486,-0.00040749,-0.00048848,-0.00033493,0.00040767,-0.00048841,0.04165
 009,-0.00000461,0.65994876,-0.00514679,0.00000019,-0.00280479,0.001899
 78,0.00000012,-0.02924067,-0.00126637,0.00000001,-0.00010508,0.0004554
 8,0.,-0.00066068,0.00111719,-0.00000009,0.00053994,-0.06039988,0.00000
 061,-0.01775698,-0.00407868,0.00000019,0.00267748,0.00000874,-0.000000
 03,-0.00014988,-0.00003611,-0.00004248,-0.00008257,-0.00003611,0.00004
 248,-0.00008256,0.00513160,-0.00000011,0.02824124,0.06120962,0.0000001
 0,0.00701458,0.00000020,-0.00000014,0.00313826,0.00000045,0.00000013,-
 0.00121385,0.,-0.00000004,0.00086062,0.00000006,-0.00000008,-0.0038355
 0,0.,0.00000064,-0.03730175,0.00000129,0.00000023,0.00696307,0.0000000
 7,0.00000001,-0.00116628,-0.00000002,0.00004318,0.00001360,0.00009874,
 -0.00004318,0.00001361,-0.00009873,0.,0.00337314,-0.00000052,-0.000000
 76,0.02614000,-0.00273620,0.00000004,0.00041161,0.00094553,0.00000003,
 -0.00905775,0.00039806,0.,0.00068522,0.00025746,0.,0.00013871,-0.00019
 053,-0.00000001,0.00077326,-0.01718798,0.00000134,-0.33792893,0.002824
 88,-0.00000004,0.00034496,-0.00006534,0.,-0.00003208,-0.00004008,-0.00
 001745,-0.00006346,-0.00004008,0.00001745,-0.00006346,-0.00258168,0.00
 000011,-0.01273964,0.01842289,-0.00000146,0.35727755,-0.00140024,0.000
 00020,-0.00337752,-0.00021777,0.,-0.00081545,-0.01833121,-0.00000012,0
 .01890541,-0.00080736,0.,-0.00002054,-0.00003362,-0.00000002,0.0001881
 3,0.00178810,0.00000005,-0.00078606,-0.26100360,0.00000053,0.12203959,
 0.00039006,-0.00000004,-0.00043401,-0.00019204,-0.00003727,-0.00024648
 ,-0.00019206,0.00003728,-0.00024650,0.00422505,0.00000003,-0.00169855,
 0.00003928,0.,-0.00019823,0.27544795,0.00000035,0.00906133,0.00000014,
 0.00000005,-0.00066208,0.00000020,-0.00000003,0.00273151,-0.00000067,0
 .00000005,-0.00050606,-0.00000002,-0.00000003,-0.00176786,0.,-0.000000
 04,0.00762408,0.00000016,0.00000074,-0.03627727,0.00000078,-0.00000006
 ,-0.00355361,-0.00000011,-0.00006661,0.00003980,-0.00001588,0.00006661
 ,0.00003978,0.00001589,-0.00000036,0.00267245,-0.00000015,-0.00000003,
 0.00008027,0.00000001,-0.00000063,0.02452669,-0.00317421,0.00000019,-0
 .00027632,-0.00066030,0.00000002,-0.00065313,-0.01143616,-0.00000008,0
 .01332246,-0.00045630,-0.00000003,0.00026885,0.00009424,-0.00000003,0.
 00009998,-0.00168753,0.00000021,-0.00532297,0.11952094,0.00000029,-0.1
 3268766,0.00085342,-0.00000003,0.00001325,0.00000397,-0.00001190,-0.00
 011388,0.00000397,0.00001192,-0.00011389,0.02873953,-0.00000008,-0.010
 81153,0.00135228,-0.00000006,-0.00062144,-0.13285459,-0.00000031,0.135
 65800,-0.00202177,-0.00060930,-0.00035274,0.00095988,0.00047297,0.0003
 1550,0.00365091,0.01635231,-0.00733698,-0.00220825,-0.02285671,0.01177
 552,-0.00003452,-0.00001412,-0.00017179,-0.00027036,0.00018322,-0.0001
 2697,0.00088362,-0.00003253,-0.00016418,-0.05038938,-0.02632111,0.0180
 5773,-0.00205089,0.00000524,0.00304485,0.00133285,0.00037448,-0.001284
 93,0.00016389,-0.00086927,-0.00025005,0.00006380,-0.00014305,0.0000491
 2,-0.00020692,0.00030643,0.00004438,0.04901123,0.00101290,0.00034318,0
 .00026900,-0.00020605,-0.00025650,-0.00046349,0.00141151,0.00324491,0.
 00016291,0.00049604,0.00142658,-0.00282389,-0.00000514,0.00003978,0.00
 003879,0.00047251,-0.00004457,-0.00004586,-0.00060441,0.00031509,-0.00
 015143,-0.02827146,-0.22042401,0.11503849,0.00014310,0.00042990,0.0000
 6260,-0.00021431,0.00089967,0.00030862,-0.00019256,-0.00003028,0.00063
 938,0.00000478,0.00000791,0.00000157,0.00003721,-0.00008691,0.00006889
 ,0.02956984,0.23616098,-0.00081503,-0.00038246,-0.00419076,0.00041229,
 -0.00198376,-0.00036649,0.00337314,0.01911190,-0.01437488,0.00005179,0
 .00817465,-0.00568752,0.00007846,0.00006698,-0.00027144,-0.00052905,0.
 00018911,-0.00007934,0.00140303,0.00004174,0.00119241,0.01924926,0.117
 24537,-0.12209814,0.00000543,-0.00015602,-0.00060801,0.00042056,-0.000
 05319,0.00091363,0.00034710,-0.00121847,-0.00105612,-0.00004070,0.0002
 6590,-0.00000774,-0.00039910,0.00081971,0.00002438,-0.02103488,-0.1275
 9358,0.13548904,-0.00202135,0.00060931,-0.00035238,0.00095996,-0.00047
 296,0.00031539,0.00365188,-0.01635121,-0.00733760,-0.00220755,0.022854
 71,0.01177675,-0.00003453,0.00001412,-0.00017182,-0.00027021,-0.000183
 19,-0.00012695,0.00088343,0.00003251,-0.00016433,-0.05039306,0.0263237
 0,0.01806401,0.00133290,-0.00037434,-0.00128494,-0.00205068,-0.0000055
 4,0.00304468,0.00016383,0.00086920,-0.00024983,0.00006381,0.00014305,0
 .00004912,-0.00020694,-0.00030639,0.00004438,0.00112692,-0.00365156,-0
 .00249403,0.04901262,-0.00101286,0.00034314,-0.00026882,0.00020614,-0.
 00025664,0.00046379,-0.00141175,0.00324664,-0.00016106,-0.00049620,0.0
 0142788,0.00282522,0.00000513,0.00003977,-0.00003877,-0.00047258,-0.00
 004453,0.00004584,0.00060427,0.00031508,0.00015130,0.02827352,-0.22039
 246,-0.11504967,0.00021430,0.00089967,-0.00030872,-0.00014315,0.000429
 80,-0.00006246,0.00019255,-0.00003039,-0.00063933,-0.00000477,0.000007
 94,-0.00000157,-0.00003717,-0.00008683,-0.00006892,0.00365245,-0.02203
 939,-0.01444657,-0.02957227,0.23612666,-0.00081512,0.00038267,-0.00419
 193,0.00041253,0.00198370,-0.00036633,0.00337374,-0.01910977,-0.014376
 64,0.00005133,-0.00817340,-0.00568778,0.00007847,-0.00006700,-0.000271
 47,-0.00052918,-0.00018910,-0.00007932,0.00140304,-0.00004178,0.001192
 40,0.01925582,-0.11725655,-0.12212702,0.00042060,0.00005323,0.00091358
 ,0.00000537,0.00015611,-0.00060792,0.00034710,0.00121844,-0.00105618,-
 0.00004073,-0.00026589,-0.00000774,-0.00039917,-0.00081970,0.00002434,
 -0.00249384,0.01444214,0.01120959,-0.02104173,0.12760557,0.13552105,0.
 00021485,-0.00000004,0.00109925,-0.00259220,0.00000015,0.00352944,0.00
 153689,0.00000007,0.00042658,0.00005857,-0.00000002,-0.00004171,-0.000
 94675,0.00000002,-0.00066504,-0.01939401,0.00000046,-0.01418849,0.0038
 8702,-0.00000003,0.00188657,0.00035259,0.,0.00020887,0.00000207,0.0000
 0058,0.00001988,0.00000208,-0.00000058,0.00001988,-0.27363557,0.000004
 48,-0.11810432,0.00097465,-0.00000008,0.00009305,0.00070133,-0.0000000
 5,-0.00038803,-0.00001102,-0.00000240,-0.00002824,-0.00001102,0.000002
 40,-0.00002824,0.28886051,0.,-0.00121419,-0.00000006,0.00000011,0.0069
 6332,-0.00000009,0.00000009,0.00701395,0.00000022,-0.00000002,-0.00116
 624,-0.00000007,0.00000003,0.00008007,0.00000002,0.00000043,0.00337369
 ,0.00000015,0.00000026,0.00313516,0.00000017,-0.00000009,0.00086122,0.
 00000004,-0.00030146,0.00000793,0.00001560,0.00030147,0.00000793,-0.00
 001560,0.00000430,-0.03729698,0.00000230,-0.00000009,-0.00409563,-0.00
 000001,-0.00000005,-0.00383531,-0.00000008,-0.00007085,0.00001366,-0.0
 0008131,0.00007085,0.00001366,0.00008132,-0.00000496,0.02613776,0.0005
 9616,-0.00000002,-0.00079592,0.00338098,-0.00000004,-0.00114200,0.0003
 5820,0.00000023,-0.00627169,-0.00012624,0.00000001,-0.00008198,0.00088
 542,-0.00000002,0.00036465,0.01663614,-0.00000033,0.01178282,-0.028298
 45,0.00000050,-0.01104251,-0.00070927,-0.00000002,0.00024166,-0.000069
 90,-0.00000499,0.00005397,-0.00006992,0.00000498,0.00005397,-0.1186760
 6,0.00000234,-0.12469987,-0.00026920,0.,0.00089093,0.00034306,-0.00000
 006,0.00118957,-0.00007074,0.00004584,-0.00008861,-0.00007074,-0.00004
 584,-0.00008862,0.12616057,-0.00000260,0.12963365\\-0.00004363,0.00000
 069,0.00005843,-0.00001325,0.00000134,-0.00003063,0.00007473,-0.000001
 43,-0.00001645,0.00003094,-0.00000148,-0.00002547,-0.00000211,0.000000
 04,0.00000008,0.00006270,-0.00000019,-0.00001002,-0.00002421,-0.000000
 86,-0.00002478,-0.00003535,0.00000149,0.00001445,-0.00000347,-0.000007
 64,-0.00000042,-0.00000356,0.00000768,0.00000112,-0.00003481,-0.000000
 06,0.00005071,-0.00001446,-0.00000005,-0.00000038,0.00000056,0.0000000
 8,-0.00000062,0.00000041,0.00000771,-0.00000334,0.00000178,-0.00000753
 ,-0.00000291,0.00000373,0.00000020,-0.00000978\\\@


 SUCCESS-- IF YOU HAVE TRIED TO DO SOMETHING AND FAILED
           YOU ARE BETTER OFF THAN IF YOU HAD TRIED TO DO
           NOTHING AND SUCCEEDED.

                   -- FROM THE BACK OF A SUGAR PACKET
 Job cpu time:       0 days  1 hours 13 minutes 58.3 seconds.
 Elapsed time:       0 days  0 hours  6 minutes 10.5 seconds.
 File lengths (MBytes):  RWF=    122 Int=      0 D2E=      0 Chk=     32 Scr=      1
 Normal termination of Gaussian 16 at Fri Jun 10 03:42:11 2022.
