 Entering Gaussian System, Link 0=g16
 Input=int_initalOpt_zmat_sp.gjf
 Output=int_initalOpt_zmat_sp.out
 Initial command:
 /software/gaussian/g16-a03/l1.exe "/local_scratch/11177246/Gau-9088.inp" -scrdir="/local_scratch/11177246/"
 Entering Link 1 = /software/gaussian/g16-a03/l1.exe PID=      9089.
  
 Copyright (c) 1988,1990,1992,1993,1995,1998,2003,2009,2016,
            Gaussian, Inc.  All Rights Reserved.
  
 This is part of the Gaussian(R) 16 program.  It is based on
 the Gaussian(R) 09 system (copyright 2009, Gaussian, Inc.),
 the Gaussian(R) 03 system (copyright 2003, Gaussian, Inc.),
 the Gaussian(R) 98 system (copyright 1998, Gaussian, Inc.),
 the Gaussian(R) 94 system (copyright 1995, Gaussian, Inc.),
 the Gaussian 92(TM) system (copyright 1992, Gaussian, Inc.),
 the Gaussian 90(TM) system (copyright 1990, Gaussian, Inc.),
 the Gaussian 88(TM) system (copyright 1988, Gaussian, Inc.),
 the Gaussian 86(TM) system (copyright 1986, Carnegie Mellon
 University), and the Gaussian 82(TM) system (copyright 1983,
 Carnegie Mellon University). Gaussian is a federally registered
 trademark of Gaussian, Inc.
  
 This software contains proprietary and confidential information,
 including trade secrets, belonging to Gaussian, Inc.
  
 This software is provided under written license and may be
 used, copied, transmitted, or stored only in accord with that
 written license.
  
 The following legend is applicable only to US Government
 contracts under FAR:
  
                    RESTRICTED RIGHTS LEGEND
  
 Use, reproduction and disclosure by the US Government is
 subject to restrictions as set forth in subparagraphs (a)
 and (c) of the Commercial Computer Software - Restricted
 Rights clause in FAR 52.227-19.
  
 Gaussian, Inc.
 340 Quinnipiac St., Bldg. 40, Wallingford CT 06492
  
  
 ---------------------------------------------------------------
 Warning -- This program may not be used in any manner that
 competes with the business of Gaussian, Inc. or will provide
 assistance to any competitor of Gaussian, Inc.  The licensee
 of this program is prohibited from giving any competitor of
 Gaussian, Inc. access to this program.  By using this program,
 the user acknowledges that Gaussian, Inc. is engaged in the
 business of creating and licensing software in the field of
 computational chemistry and represents and warrants to the
 licensee that it is not a competitor of Gaussian, Inc. and that
 it will not use this program in any manner prohibited above.
 ---------------------------------------------------------------
  

 Cite this work as:
 Gaussian 16, Revision A.03,
 M. J. Frisch, G. W. Trucks, H. B. Schlegel, G. E. Scuseria, 
 M. A. Robb, J. R. Cheeseman, G. Scalmani, V. Barone, 
 G. A. Petersson, H. Nakatsuji, X. Li, M. Caricato, A. V. Marenich, 
 J. Bloino, B. G. Janesko, R. Gomperts, B. Mennucci, H. P. Hratchian, 
 J. V. Ortiz, A. F. Izmaylov, J. L. Sonnenberg, D. Williams-Young, 
 F. Ding, F. Lipparini, F. Egidi, J. Goings, B. Peng, A. Petrone, 
 T. Henderson, D. Ranasinghe, V. G. Zakrzewski, J. Gao, N. Rega, 
 G. Zheng, W. Liang, M. Hada, M. Ehara, K. Toyota, R. Fukuda, 
 J. Hasegawa, M. Ishida, T. Nakajima, Y. Honda, O. Kitao, H. Nakai, 
 T. Vreven, K. Throssell, J. A. Montgomery, Jr., J. E. Peralta, 
 F. Ogliaro, M. J. Bearpark, J. J. Heyd, E. N. Brothers, K. N. Kudin, 
 V. N. Staroverov, T. A. Keith, R. Kobayashi, J. Normand, 
 K. Raghavachari, A. P. Rendell, J. C. Burant, S. S. Iyengar, 
 J. Tomasi, M. Cossi, J. M. Millam, M. Klene, C. Adamo, R. Cammi, 
 J. W. Ochterski, R. L. Martin, K. Morokuma, O. Farkas, 
 J. B. Foresman, and D. J. Fox, Gaussian, Inc., Wallingford CT, 2016.
 
 ******************************************
 Gaussian 16:  ES64L-G16RevA.03 25-Dec-2016
                12-Jun-2022 
 ******************************************
 %nprocshared=12
 Will use up to   12 processors via shared memory.
 %chk=checkpoint.chk
 %mem=12GB
 --------------------------
 # sp B3LYP/Def2TZVP NoSymm
 --------------------------
 1/38=1,172=1/1;
 2/12=2,15=1,17=6,18=5,40=1/2;
 3/5=44,7=101,11=2,25=1,30=1,74=-5/1,2,3;
 4//1;
 5/5=2,38=5/2;
 6/7=2,8=2,9=2,10=2,28=1/1;
 99/5=1,9=1/99;
 ----------------------------
 int_initalOpt_zmat_AlignedSp
 ----------------------------
 Symbolic Z-matrix:
 Charge =  0 Multiplicity = 1
 C
 C                    1    R2
 C                    1    R3       2    A3
 H                    1    R4       2    A4       3    D4       0
 O                    2    R5       1    A5       3    D5       0
 C                    3    R6       1    A6       2    D6       0
 H                    3    R7       1    A7       6    D7       0
 O                    2    R8       1    A8       5    D8       0
 O                    6    R9       3    A9       1    D9       0
 C                    1    R10      2    A10      3    D10      0
 C                    10   R11      1    A11      2    D11      0
 C                    10   R12      1    A12      11   D12      0
 H                    10   R13      1    A13      11   D13      0
 C                    11   R14      10   A14      1    D14      0
 H                    11   R15      10   A15      14   D15      0
 H                    12   R16      10   A16      1    D16      0
 H                    12   R17      10   A17      16   D17      0
 C                    12   R18      10   A18      16   D18      0
 H                    14   R19      11   A19      10   D19      0
 H                    18   R20      12   A20      10   D20      0
       Variables:
  R2                    1.4859                   
  R3                    1.32924                  
  R4                    1.07822                  
  R5                    1.18992                  
  R6                    1.48577                  
  R7                    1.07827                  
  R8                    1.39081                  
  R9                    1.18985                  
  R10                   3.78537                  
  R11                   1.34527                  
  R12                   1.50112                  
  R13                   1.07998                  
  R14                   1.46421                  
  R15                   1.0809                   
  R16                   1.09702                  
  R17                   1.09727                  
  R18                   1.50122                  
  R19                   1.0809                   
  R20                   1.07995                  
  A3                  108.24325                  
  A4                  121.97226                  
  A5                  130.07143                  
  A6                  108.2655                   
  A7                  129.7675                   
  A8                  107.41628                  
  A9                  130.07822                  
  A10                  89.45845                  
  A11                  79.05168                  
  A12                  89.45299                  
  A13                 100.84524                  
  A14                 109.2755                   
  A15                 126.15531                  
  A16                 112.42572                  
  A17                 111.6699                   
  A18                 103.17401                  
  A19                 124.56382                  
  A20                 124.14337                  
  D4                  179.90307                  
  D5                 -179.19401                  
  D6                    0.00834                  
  D7                  179.83232                  
  D8                  179.4369                   
  D9                  179.11462                  
  D10                 -97.98989                  
  D11                  32.00348                  
  D12                 109.61534                  
  D13                -125.66952                  
  D14                  85.07402                  
  D15                 179.97403                  
  D16                  43.92702                  
  D17                 118.55369                  
  D18                -121.37833                  
  D19                 179.95818                  
  D20                -179.8459                   
 
                          Input orientation:                          
 ---------------------------------------------------------------------
 Center     Atomic      Atomic             Coordinates (Angstroms)
 Number     Number       Type             X           Y           Z
 ---------------------------------------------------------------------
      1          6           0        0.000000    0.000000    0.000000
      2          6           0        0.000000    0.000000    1.485898
      3          6           0        1.262430    0.000000   -0.416122
      4          1           0       -0.914660   -0.001547   -0.570929
      5          8           0       -0.910484   -0.012809    2.251897
      6          6           0        2.146383   -0.000205    0.778091
      7          1           0        1.658043   -0.002305   -1.419194
      8          8           0        1.327041    0.005626    1.902185
      9          8           0        3.333841   -0.014338    0.852233
     10          6           0       -0.526137    3.748456    0.035778
     11          6           0        0.204029    3.582261    1.153360
     12          6           0        0.397248    3.874822   -1.140972
     13          1           0       -1.602717    3.803182   -0.030120
     14          6           0        1.626161    3.574826    0.804938
     15          1           0       -0.182175    3.470860    2.156746
     16          1           0        0.205219    3.113641   -1.907249
     17          1           0        0.278487    4.841036   -1.647266
     18          6           0        1.758757    3.736039   -0.523964
     19          1           0        2.431255    3.457442    1.516548
     20          1           0        2.683503    3.779000   -1.080100
 ---------------------------------------------------------------------
                    Distance matrix (angstroms):
                    1          2          3          4          5
     1  C    0.000000
     2  C    1.485898   0.000000
     3  C    1.329243   2.282851   0.000000
     4  H    1.078223   2.251031   2.182588   0.000000
     5  O    2.429029   1.189915   3.440936   2.822851   0.000000
     6  C    2.283065   2.260078   1.485772   3.345122   3.393626
     7  H    2.182481   3.344947   1.078271   2.708940   4.480440
     8  O    2.319349   1.390814   2.319214   3.337899   2.264764
     9  O    3.441076   3.393558   2.428925   4.480549   4.469156
    10  C    3.785369   4.053466   4.177811   3.818582   4.382467
    11  C    3.768881   3.603443   4.051676   4.131383   3.920899
    12  C    4.058802   4.698138   4.035864   4.131863   5.323100
    13  H    4.127203   4.396727   4.777264   3.904083   4.499841
    14  C    4.008953   3.985911   3.795085   4.597741   4.625946
    15  H    4.090430   3.539788   4.555591   4.475976   3.560258
    16  H    3.657112   4.609807   3.610528   3.569913   5.321463
    17  H    5.121198   5.773205   5.091118   5.102227   6.338527
    18  C    4.162422   4.592468   3.770406   4.595533   5.374394
    19  H    4.490525   4.226800   4.129802   5.245695   4.873458
    20  H    4.759059   5.297771   4.091596   5.243908   6.196512
                    6          7          8          9         10
     6  C    0.000000
     7  H    2.250898   0.000000
     8  O    1.391022   3.337841   0.000000
     9  O    1.189855   2.822734   2.264961   0.000000
    10  C    4.663245   4.577750   4.574552   5.452032   0.000000
    11  C    4.092387   4.645568   3.822855   4.777230   1.345270
    12  C    4.664560   4.086457   5.009591   5.265170   1.501115
    13  H    5.401362   5.200366   5.170949   6.302508   1.079982
    14  C    3.612783   4.212321   3.746013   3.974985   2.292191
    15  H    4.401269   5.313815   3.788191   5.119642   2.166535
    16  H    4.547000   3.472465   5.042820   5.214141   2.170996
    17  H    5.727915   5.041145   6.089274   6.257583   2.161895
    18  C    3.975566   3.845361   4.470857   4.294198   2.352489
    19  H    3.547082   4.602856   3.644590   3.648182   3.320171
    20  H    4.245440   3.932533   4.997236   4.306537   3.398221
                   11         12         13         14         15
    11  C    0.000000
    12  C    2.320966   0.000000
    13  H    2.171120   2.288882   0.000000
    14  C    1.464210   2.320946   3.342920   0.000000
    15  H    1.080902   3.372515   2.628832   2.260148   0.000000
    16  H    3.096277   1.097020   2.695869   3.096405   4.098016
    17  H    3.071411   1.097272   2.689095   3.071289   4.069410
    18  C    2.292213   1.501222   3.398220   1.345196   3.320202
    19  H    2.260093   3.372507   4.334125   1.080899   2.690734
    20  H    3.342879   2.289072   4.413017   2.170951   4.334078
                   16         17         18         19         20
    16  H    0.000000
    17  H    1.748386   0.000000
    18  C    2.171253   2.161950   0.000000
    19  H    4.098270   4.069209   2.166461   0.000000
    20  H    2.696066   2.689554   1.079948   2.628613   0.000000
 Symmetry turned off by external request.
 Stoichiometry    C9H8O3
 Framework group  C1[X(C9H8O3)]
 Deg. of freedom    54
 Full point group                 C1      NOp   1
 Rotational constants (GHZ):           1.3367591           0.7031176           0.5815111
 Standard basis: def2TZVP (5D, 7F)
   420 basis functions,   676 primitive gaussians,   480 cartesian basis functions
    43 alpha electrons       43 beta electrons
       nuclear repulsion energy       652.4377318208 Hartrees.
 NAtoms=   20 NActive=   20 NUniq=   20 SFac= 1.00D+00 NAtFMM=   60 NAOKFM=F Big=F
 Integral buffers will be    131072 words long.
 Raffenetti 2 integral format.
 Two-electron integral symmetry is turned off.
 One-electron integrals computed using PRISM.
   1 Symmetry operations used in ECPInt.
 ECPInt:  NShTT=   13530 NPrTT=   41904 LenC2=   12937 LenP2D=   30386.
 LDataN:  DoStor=T MaxTD1= 6 Len=  172
 NBasis=   420 RedAO= T EigKep=  4.30D-05  NBF=   420
 NBsUse=   420 1.00D-06 EigRej= -1.00D+00 NBFU=   420
 ExpMin= 9.52D-02 ExpMax= 2.70D+04 ExpMxC= 9.22D+02 IAcc=3 IRadAn=         5 AccDes= 0.00D+00
 Harris functional with IExCor=  402 and IRadAn=       5 diagonalized for initial guess.
 HarFok:  IExCor=  402 AccDes= 0.00D+00 IRadAn=         5 IDoV= 1 UseB2=F ITyADJ=14
 ICtDFT=  3500011 ScaDFX=  1.000000  1.000000  1.000000  1.000000
 FoFCou: FMM=F IPFlag=           0 FMFlag=      100000 FMFlg1=           0
         NFxFlg=           0 DoJE=T BraDBF=F KetDBF=T FulRan=T
         wScrn=  0.000000 ICntrl=       500 IOpCl=  0 I1Cent=   200000004 NGrid=           0
         NMat0=    1 NMatS0=      1 NMatT0=    0 NMatD0=    1 NMtDS0=    0 NMtDT0=    0
 Symmetry not used in FoFCou.
 Requested convergence on RMS density matrix=1.00D-08 within 128 cycles.
 Requested convergence on MAX density matrix=1.00D-06.
 Requested convergence on             energy=1.00D-06.
 No special actions if energy rises.
 Integral accuracy reduced to 1.0D-05 until final iterations.
 Initial convergence to 1.0D-05 achieved.  Increase integral accuracy.
 SCF Done:  E(RB3LYP) =  -573.628844314     A.U. after   14 cycles
            NFock= 14  Conv=0.56D-08     -V/T= 2.0047

 **********************************************************************

            Population analysis using the SCF density.

 **********************************************************************

 Alpha  occ. eigenvalues --  -19.20454 -19.15296 -19.15292 -10.33543 -10.33539
 Alpha  occ. eigenvalues --  -10.23795 -10.23703 -10.19006 -10.18050 -10.18032
 Alpha  occ. eigenvalues --  -10.17955 -10.17923  -1.15447  -1.09390  -1.05474
 Alpha  occ. eigenvalues --   -0.87100  -0.85815  -0.71844  -0.71735  -0.70930
 Alpha  occ. eigenvalues --   -0.64481  -0.60760  -0.56494  -0.54230  -0.52809
 Alpha  occ. eigenvalues --   -0.52642  -0.51311  -0.49058  -0.47664  -0.45557
 Alpha  occ. eigenvalues --   -0.45182  -0.43253  -0.42440  -0.41139  -0.39047
 Alpha  occ. eigenvalues --   -0.37323  -0.37307  -0.35219  -0.33619  -0.33256
 Alpha  occ. eigenvalues --   -0.31633  -0.30457  -0.23742
 Alpha virt. eigenvalues --   -0.11802  -0.03900   0.01386   0.02369   0.03637
 Alpha virt. eigenvalues --    0.05486   0.05643   0.06091   0.06394   0.07498
 Alpha virt. eigenvalues --    0.08937   0.09647   0.10008   0.10168   0.12722
 Alpha virt. eigenvalues --    0.13279   0.13811   0.16026   0.17585   0.17991
 Alpha virt. eigenvalues --    0.18007   0.18525   0.19532   0.20928   0.21835
 Alpha virt. eigenvalues --    0.22480   0.23320   0.24364   0.25310   0.25687
 Alpha virt. eigenvalues --    0.26177   0.28554   0.28672   0.31476   0.31836
 Alpha virt. eigenvalues --    0.32145   0.32665   0.33600   0.34700   0.35167
 Alpha virt. eigenvalues --    0.35515   0.36457   0.36701   0.38096   0.39250
 Alpha virt. eigenvalues --    0.40127   0.40424   0.41629   0.41817   0.42096
 Alpha virt. eigenvalues --    0.42220   0.43849   0.45022   0.45729   0.46523
 Alpha virt. eigenvalues --    0.47414   0.48051   0.49926   0.50123   0.50600
 Alpha virt. eigenvalues --    0.52651   0.53065   0.54083   0.54834   0.57316
 Alpha virt. eigenvalues --    0.57812   0.58929   0.59341   0.59803   0.60616
 Alpha virt. eigenvalues --    0.63204   0.64167   0.64759   0.65585   0.65834
 Alpha virt. eigenvalues --    0.69226   0.69256   0.70345   0.70828   0.71349
 Alpha virt. eigenvalues --    0.73765   0.75657   0.77899   0.82111   0.84062
 Alpha virt. eigenvalues --    0.85202   0.85748   0.88721   0.88840   0.89925
 Alpha virt. eigenvalues --    0.94517   0.94716   0.95656   0.96592   0.96865
 Alpha virt. eigenvalues --    0.96998   0.98594   1.00451   1.01950   1.02218
 Alpha virt. eigenvalues --    1.02500   1.03276   1.08348   1.08674   1.09552
 Alpha virt. eigenvalues --    1.10912   1.12423   1.13719   1.14527   1.15869
 Alpha virt. eigenvalues --    1.17386   1.18769   1.21275   1.22859   1.24905
 Alpha virt. eigenvalues --    1.27057   1.28248   1.29629   1.30825   1.32642
 Alpha virt. eigenvalues --    1.33684   1.34118   1.36091   1.36434   1.38153
 Alpha virt. eigenvalues --    1.41172   1.41729   1.43059   1.44156   1.46764
 Alpha virt. eigenvalues --    1.47326   1.49686   1.49826   1.51186   1.52015
 Alpha virt. eigenvalues --    1.54622   1.55607   1.58435   1.58570   1.59298
 Alpha virt. eigenvalues --    1.61585   1.62727   1.64611   1.66230   1.68059
 Alpha virt. eigenvalues --    1.69738   1.72778   1.75101   1.75424   1.75655
 Alpha virt. eigenvalues --    1.76525   1.82121   1.83904   1.87256   1.87719
 Alpha virt. eigenvalues --    1.88460   1.90360   1.91942   1.92688   1.94281
 Alpha virt. eigenvalues --    1.95983   1.96753   1.97889   1.98093   2.00131
 Alpha virt. eigenvalues --    2.00396   2.03231   2.05064   2.05523   2.08172
 Alpha virt. eigenvalues --    2.11038   2.12766   2.15652   2.17157   2.17507
 Alpha virt. eigenvalues --    2.18429   2.19325   2.21236   2.21707   2.23993
 Alpha virt. eigenvalues --    2.26877   2.28210   2.28681   2.30531   2.32217
 Alpha virt. eigenvalues --    2.32996   2.39493   2.42102   2.42526   2.43273
 Alpha virt. eigenvalues --    2.46187   2.47805   2.51302   2.53237   2.53714
 Alpha virt. eigenvalues --    2.54064   2.58228   2.60198   2.60672   2.61238
 Alpha virt. eigenvalues --    2.63255   2.63308   2.64475   2.65628   2.66163
 Alpha virt. eigenvalues --    2.66762   2.68277   2.69380   2.69938   2.71942
 Alpha virt. eigenvalues --    2.72680   2.77123   2.77490   2.78268   2.78690
 Alpha virt. eigenvalues --    2.79103   2.81352   2.81854   2.83932   2.85252
 Alpha virt. eigenvalues --    2.87238   2.88702   2.90854   2.92563   2.94262
 Alpha virt. eigenvalues --    2.96447   2.97217   2.97288   2.98275   2.98959
 Alpha virt. eigenvalues --    2.99231   3.00417   3.00607   3.04636   3.05070
 Alpha virt. eigenvalues --    3.06792   3.07400   3.08412   3.09424   3.09863
 Alpha virt. eigenvalues --    3.10737   3.11332   3.13743   3.14826   3.15752
 Alpha virt. eigenvalues --    3.16006   3.16793   3.18181   3.19443   3.20355
 Alpha virt. eigenvalues --    3.23115   3.24155   3.25057   3.26076   3.28114
 Alpha virt. eigenvalues --    3.29392   3.30435   3.30708   3.31407   3.32009
 Alpha virt. eigenvalues --    3.33339   3.34353   3.37493   3.39243   3.41155
 Alpha virt. eigenvalues --    3.43059   3.45472   3.47305   3.47387   3.48123
 Alpha virt. eigenvalues --    3.48702   3.50487   3.53464   3.54057   3.58056
 Alpha virt. eigenvalues --    3.58590   3.59109   3.61899   3.62088   3.62498
 Alpha virt. eigenvalues --    3.69386   3.71400   3.82155   3.84075   3.86085
 Alpha virt. eigenvalues --    3.89044   3.89805   3.96909   3.98530   4.00249
 Alpha virt. eigenvalues --    4.04613   4.05033   4.05368   4.05625   4.08785
 Alpha virt. eigenvalues --    4.08834   4.10127   4.12740   4.16423   4.18696
 Alpha virt. eigenvalues --    4.23427   4.24083   4.28403   4.32416   4.32904
 Alpha virt. eigenvalues --    4.36831   4.37276   4.40384   4.41785   4.47175
 Alpha virt. eigenvalues --    4.50831   4.54213   4.56130   4.56183   4.61466
 Alpha virt. eigenvalues --    4.62903   4.68150   4.72575   4.72974   4.73220
 Alpha virt. eigenvalues --    4.82244   4.84148   4.85419   4.88230   5.01857
 Alpha virt. eigenvalues --    5.07684   5.12673   5.14945   5.16840   5.17640
 Alpha virt. eigenvalues --    5.18406   5.21706   5.21810   5.30931   5.36726
 Alpha virt. eigenvalues --    5.46132   5.57710   5.59725   5.63940   5.73920
 Alpha virt. eigenvalues --    5.73962   5.90294   6.10172   6.16254   6.17080
 Alpha virt. eigenvalues --    6.21080   6.32032   6.32779   6.34292   6.42499
 Alpha virt. eigenvalues --    6.46862   6.53233   6.63601   6.65598   6.75610
 Alpha virt. eigenvalues --    6.75907   6.77972   6.78656   6.92585   7.03270
 Alpha virt. eigenvalues --    7.03916   7.11411   7.13753   7.24656   7.42771
 Alpha virt. eigenvalues --   22.00852  22.23581  22.38339  22.48390  22.73960
 Alpha virt. eigenvalues --   22.77780  22.84672  22.97053  23.52764  43.86993
 Alpha virt. eigenvalues --   43.89192  44.06991
          Condensed to atoms (all electrons):
               1          2          3          4          5          6
     1  C    5.533667   0.248041   0.169683   0.380226  -0.089191   0.013069
     2  C    0.248041   4.460721   0.011651  -0.016182   0.708100  -0.048228
     3  C    0.169683   0.011651   5.535429  -0.014514   0.007683   0.245292
     4  H    0.380226  -0.016182  -0.014514   0.491741   0.002618   0.003512
     5  O   -0.089191   0.708100   0.007683   0.002618   7.678343   0.001023
     6  C    0.013069  -0.048228   0.245292   0.003512   0.001023   4.467805
     7  H   -0.015144   0.003560   0.380978  -0.002233  -0.000120  -0.016459
     8  O   -0.110433   0.319750  -0.106807   0.003174  -0.080573   0.313195
     9  O    0.007686   0.000713  -0.088774  -0.000118  -0.000165   0.708289
    10  C   -0.013419   0.004590   0.003839   0.001256   0.000116  -0.001300
    11  C    0.001348   0.002980   0.000035   0.000329  -0.001830  -0.000855
    12  C   -0.000173   0.000002   0.001252  -0.000063  -0.000087  -0.000335
    13  H   -0.000530   0.000110   0.000050   0.000101   0.000058   0.000021
    14  C    0.003913  -0.003538   0.004687  -0.000017  -0.000518   0.001355
    15  H    0.000416   0.000925  -0.000303  -0.000022   0.000949  -0.000078
    16  H    0.000085   0.000295   0.000894   0.000053   0.000003   0.000112
    17  H    0.000069  -0.000027   0.000020   0.000004  -0.000001  -0.000018
    18  C    0.004351  -0.001692  -0.015971  -0.000422   0.000227   0.005349
    19  H   -0.000197  -0.000215   0.000595   0.000001  -0.000010   0.000968
    20  H    0.000083   0.000030  -0.000688  -0.000005   0.000001   0.000172
               7          8          9         10         11         12
     1  C   -0.015144  -0.110433   0.007686  -0.013419   0.001348  -0.000173
     2  C    0.003560   0.319750   0.000713   0.004590   0.002980   0.000002
     3  C    0.380978  -0.106807  -0.088774   0.003839   0.000035   0.001252
     4  H   -0.002233   0.003174  -0.000118   0.001256   0.000329  -0.000063
     5  O   -0.000120  -0.080573  -0.000165   0.000116  -0.001830  -0.000087
     6  C   -0.016459   0.313195   0.708289  -0.001300  -0.000855  -0.000335
     7  H    0.491943   0.003202   0.002722  -0.000359   0.000070  -0.000041
     8  O    0.003202   7.947421  -0.080180  -0.000400  -0.000147   0.000320
     9  O    0.002722  -0.080180   7.677162   0.000114   0.000127  -0.000100
    10  C   -0.000359  -0.000400   0.000114   5.075587   0.598755   0.359880
    11  C    0.000070  -0.000147   0.000127   0.598755   4.943421  -0.084804
    12  C   -0.000041   0.000320  -0.000100   0.359880  -0.084804   4.824294
    13  H   -0.000005   0.000006   0.000000   0.417316  -0.031050  -0.045532
    14  C   -0.000072   0.004028  -0.002975  -0.060023   0.364754  -0.081709
    15  H    0.000003  -0.000245   0.000004  -0.031753   0.411937   0.008635
    16  H    0.000167  -0.000029   0.000005  -0.025859  -0.000346   0.386424
    17  H    0.000001   0.000001  -0.000001  -0.026887   0.002884   0.391271
    18  C    0.000821  -0.001166   0.000729  -0.120261  -0.056149   0.359614
    19  H   -0.000034   0.000063   0.000574   0.004581  -0.038060   0.008811
    20  H    0.000113   0.000006   0.000145   0.007650   0.005102  -0.046330
              13         14         15         16         17         18
     1  C   -0.000530   0.003913   0.000416   0.000085   0.000069   0.004351
     2  C    0.000110  -0.003538   0.000925   0.000295  -0.000027  -0.001692
     3  C    0.000050   0.004687  -0.000303   0.000894   0.000020  -0.015971
     4  H    0.000101  -0.000017  -0.000022   0.000053   0.000004  -0.000422
     5  O    0.000058  -0.000518   0.000949   0.000003  -0.000001   0.000227
     6  C    0.000021   0.001355  -0.000078   0.000112  -0.000018   0.005349
     7  H   -0.000005  -0.000072   0.000003   0.000167   0.000001   0.000821
     8  O    0.000006   0.004028  -0.000245  -0.000029   0.000001  -0.001166
     9  O    0.000000  -0.002975   0.000004   0.000005  -0.000001   0.000729
    10  C    0.417316  -0.060023  -0.031753  -0.025859  -0.026887  -0.120261
    11  C   -0.031050   0.364754   0.411937  -0.000346   0.002884  -0.056149
    12  C   -0.045532  -0.081709   0.008635   0.386424   0.391271   0.359614
    13  H    0.530594   0.005124  -0.003925   0.000271  -0.000083   0.007475
    14  C    0.005124   4.952156  -0.038762   0.000153   0.003262   0.590664
    15  H   -0.003925  -0.038762   0.518542  -0.000294  -0.000312   0.004941
    16  H    0.000271   0.000153  -0.000294   0.600058  -0.033697  -0.027033
    17  H   -0.000083   0.003262  -0.000312  -0.033697   0.571667  -0.027204
    18  C    0.007475   0.590664   0.004941  -0.027033  -0.027204   5.077972
    19  H   -0.000215   0.411623  -0.000492  -0.000308  -0.000297  -0.032087
    20  H   -0.000062  -0.030898  -0.000213   0.000242  -0.000072   0.417975
              19         20
     1  C   -0.000197   0.000083
     2  C   -0.000215   0.000030
     3  C    0.000595  -0.000688
     4  H    0.000001  -0.000005
     5  O   -0.000010   0.000001
     6  C    0.000968   0.000172
     7  H   -0.000034   0.000113
     8  O    0.000063   0.000006
     9  O    0.000574   0.000145
    10  C    0.004581   0.007650
    11  C   -0.038060   0.005102
    12  C    0.008811  -0.046330
    13  H   -0.000215  -0.000062
    14  C    0.411623  -0.030898
    15  H   -0.000492  -0.000213
    16  H   -0.000308   0.000242
    17  H   -0.000297  -0.000072
    18  C   -0.032087   0.417975
    19  H    0.518745  -0.003983
    20  H   -0.003983   0.529242
 Mulliken charges:
               1
     1  C   -0.133550
     2  C    0.308414
     3  C   -0.135030
     4  H    0.150565
     5  O   -0.226628
     6  C    0.307111
     7  H    0.150888
     8  O   -0.211187
     9  O   -0.225959
    10  C   -0.193424
    11  C   -0.118502
    12  C   -0.081331
    13  H    0.120279
    14  C   -0.123207
    15  H    0.130045
    16  H    0.098804
    17  H    0.119418
    18  C   -0.188133
    19  H    0.129936
    20  H    0.121491
 Sum of Mulliken charges =  -0.00000
 Mulliken charges with hydrogens summed into heavy atoms:
               1
     1  C    0.017015
     2  C    0.308414
     3  C    0.015858
     5  O   -0.226628
     6  C    0.307111
     8  O   -0.211187
     9  O   -0.225959
    10  C   -0.073145
    11  C    0.011543
    12  C    0.136891
    14  C    0.006728
    18  C   -0.066642
 Electronic spatial extent (au):  <R**2>=           3136.1863
 Charge=             -0.0000 electrons
 Dipole moment (field-independent basis, Debye):
    X=             -1.3952    Y=              0.7926    Z=             -4.3106  Tot=              4.5996
 Quadrupole moment (field-independent basis, Debye-Ang):
   XX=            -79.0527   YY=            -66.9918   ZZ=            -72.9788
   XY=              0.1942   XZ=             -1.6297   YZ=             -1.5559
 Traceless Quadrupole moment (field-independent basis, Debye-Ang):
   XX=             -6.0449   YY=              6.0159   ZZ=              0.0290
   XY=              0.1942   XZ=             -1.6297   YZ=             -1.5559
 Octapole moment (field-independent basis, Debye-Ang**2):
  XXX=           -219.3081  YYY=           -347.5314  ZZZ=           -130.3172  XYY=            -60.0631
  XXY=           -105.2609  XXZ=            -54.9484  XZZ=            -53.9260  YZZ=           -101.3630
  YYZ=            -45.2871  XYZ=             -0.1135
 Hexadecapole moment (field-independent basis, Debye-Ang**3):
 XXXX=          -1147.9677 YYYY=          -2703.2956 ZZZZ=           -693.0975 XXXY=           -212.1850
 XXXZ=           -111.1041 YYYX=           -251.9653 YYYZ=            -71.2650 ZZZX=            -68.0220
 ZZZY=             11.8524 XXYY=           -574.7567 XXZZ=           -286.4679 YYZZ=           -499.9427
 XXYZ=              1.4709 YYXZ=            -24.7947 ZZXY=            -65.6262
 N-N= 6.524377318208D+02 E-N=-2.644267157234D+03  KE= 5.709325684756D+02
 1\1\GINC-BHC0172\SP\RB3LYP\def2TZVP\C9H8O3\DHANAWAY\12-Jun-2022\0\\# s
 p B3LYP/Def2TZVP NoSymm\\int_initalOpt_zmat_AlignedSp\\0,1\C\C,1,1.485
 89803\C,1,1.32924277,2,108.24324721\H,1,1.07822332,2,121.97226484,3,17
 9.90306538,0\O,2,1.18991545,1,130.07142919,3,-179.19401151,0\C,3,1.485
 77211,1,108.26549858,2,0.00834322,0\H,3,1.07827105,1,129.76749838,6,17
 9.8323187,0\O,2,1.39081438,1,107.41627942,5,179.43689551,0\O,6,1.18985
 462,3,130.07822371,1,179.11461615,0\C,1,3.78536929,2,89.45845116,3,-97
 .98989377,0\C,10,1.34527044,1,79.05168469,2,32.00347749,0\C,10,1.50111
 529,1,89.45298767,11,109.61534013,0\H,10,1.07998208,1,100.84523812,11,
 -125.66951799,0\C,11,1.46420964,10,109.27550045,1,85.07402443,0\H,11,1
 .08090154,10,126.15531337,14,179.97403201,0\H,12,1.09701995,10,112.425
 71713,1,43.92701711,0\H,12,1.09727231,10,111.669896,16,118.55369421,0\
 C,12,1.50122246,10,103.17401387,16,-121.37833113,0\H,14,1.08089941,11,
 124.56381888,10,179.9581834,0\H,18,1.07994822,12,124.14337432,10,-179.
 84590432,0\\Version=ES64L-G16RevA.03\HF=-573.6288443\RMSD=5.649e-09\Di
 pole=-0.5489253,0.3118428,-1.6959217\Quadrupole=-4.4942584,4.4726979,0
 .0215605,0.1443505,-1.2116721,-1.1567966\PG=C01 [X(C9H8O3)]\\@


 VIRTUE IS LEARNED AT YOUR MOTHER'S KNEE,
 VICES ARE PICKED UP AT SOME OTHER JOINT.
 Job cpu time:       0 days  0 hours 22 minutes 41.0 seconds.
 Elapsed time:       0 days  0 hours  1 minutes 53.7 seconds.
 File lengths (MBytes):  RWF=     98 Int=      0 D2E=      0 Chk=     32 Scr=      1
 Normal termination of Gaussian 16 at Sun Jun 12 01:13:45 2022.
