 Entering Gaussian System, Link 0=g16
 Input=int_zmat_field_N75.gjf
 Output=int_zmat_field_N75.out
 Initial command:
 /software/gaussian/g16-a03/l1.exe "/local_scratch/11174608/Gau-31872.inp" -scrdir="/local_scratch/11174608/"
 Entering Link 1 = /software/gaussian/g16-a03/l1.exe PID=     31873.
  
 Copyright (c) 1988,1990,1992,1993,1995,1998,2003,2009,2016,
            Gaussian, Inc.  All Rights Reserved.
  
 This is part of the Gaussian(R) 16 program.  It is based on
 the Gaussian(R) 09 system (copyright 2009, Gaussian, Inc.),
 the Gaussian(R) 03 system (copyright 2003, Gaussian, Inc.),
 the Gaussian(R) 98 system (copyright 1998, Gaussian, Inc.),
 the Gaussian(R) 94 system (copyright 1995, Gaussian, Inc.),
 the Gaussian 92(TM) system (copyright 1992, Gaussian, Inc.),
 the Gaussian 90(TM) system (copyright 1990, Gaussian, Inc.),
 the Gaussian 88(TM) system (copyright 1988, Gaussian, Inc.),
 the Gaussian 86(TM) system (copyright 1986, Carnegie Mellon
 University), and the Gaussian 82(TM) system (copyright 1983,
 Carnegie Mellon University). Gaussian is a federally registered
 trademark of Gaussian, Inc.
  
 This software contains proprietary and confidential information,
 including trade secrets, belonging to Gaussian, Inc.
  
 This software is provided under written license and may be
 used, copied, transmitted, or stored only in accord with that
 written license.
  
 The following legend is applicable only to US Government
 contracts under FAR:
  
                    RESTRICTED RIGHTS LEGEND
  
 Use, reproduction and disclosure by the US Government is
 subject to restrictions as set forth in subparagraphs (a)
 and (c) of the Commercial Computer Software - Restricted
 Rights clause in FAR 52.227-19.
  
 Gaussian, Inc.
 340 Quinnipiac St., Bldg. 40, Wallingford CT 06492
  
  
 ---------------------------------------------------------------
 Warning -- This program may not be used in any manner that
 competes with the business of Gaussian, Inc. or will provide
 assistance to any competitor of Gaussian, Inc.  The licensee
 of this program is prohibited from giving any competitor of
 Gaussian, Inc. access to this program.  By using this program,
 the user acknowledges that Gaussian, Inc. is engaged in the
 business of creating and licensing software in the field of
 computational chemistry and represents and warrants to the
 licensee that it is not a competitor of Gaussian, Inc. and that
 it will not use this program in any manner prohibited above.
 ---------------------------------------------------------------
  

 Cite this work as:
 Gaussian 16, Revision A.03,
 M. J. Frisch, G. W. Trucks, H. B. Schlegel, G. E. Scuseria, 
 M. A. Robb, J. R. Cheeseman, G. Scalmani, V. Barone, 
 G. A. Petersson, H. Nakatsuji, X. Li, M. Caricato, A. V. Marenich, 
 J. Bloino, B. G. Janesko, R. Gomperts, B. Mennucci, H. P. Hratchian, 
 J. V. Ortiz, A. F. Izmaylov, J. L. Sonnenberg, D. Williams-Young, 
 F. Ding, F. Lipparini, F. Egidi, J. Goings, B. Peng, A. Petrone, 
 T. Henderson, D. Ranasinghe, V. G. Zakrzewski, J. Gao, N. Rega, 
 G. Zheng, W. Liang, M. Hada, M. Ehara, K. Toyota, R. Fukuda, 
 J. Hasegawa, M. Ishida, T. Nakajima, Y. Honda, O. Kitao, H. Nakai, 
 T. Vreven, K. Throssell, J. A. Montgomery, Jr., J. E. Peralta, 
 F. Ogliaro, M. J. Bearpark, J. J. Heyd, E. N. Brothers, K. N. Kudin, 
 V. N. Staroverov, T. A. Keith, R. Kobayashi, J. Normand, 
 K. Raghavachari, A. P. Rendell, J. C. Burant, S. S. Iyengar, 
 J. Tomasi, M. Cossi, J. M. Millam, M. Klene, C. Adamo, R. Cammi, 
 J. W. Ochterski, R. L. Martin, K. Morokuma, O. Farkas, 
 J. B. Foresman, and D. J. Fox, Gaussian, Inc., Wallingford CT, 2016.
 
 ******************************************
 Gaussian 16:  ES64L-G16RevA.03 25-Dec-2016
                10-Jun-2022 
 ******************************************
 %nprocshared=12
 Will use up to   12 processors via shared memory.
 %chk=checkpoint.chk
 %mem=12GB
 ----------------------------------------------------------------------
 # Opt=(Z-matrix, MaxStep=10) B3LYP/Def2TZVP geom=allcheckpoint guess=r
 ead Field=read NoSymm freq=noraman pop=none
 ----------------------------------------------------------------------
 1/8=10,10=7,18=40,26=3,29=7,38=1/1,3;
 2/12=2,15=1,29=3,40=1/2;
 3/5=44,7=101,11=2,14=-6,25=1,30=1,71=1,74=-5,116=-2/1,2,3;
 4/5=1/1;
 5/5=2,38=6/2;
 7/29=1,30=1/1,2,3,16;
 1/8=10,10=7,18=40,26=3/3(2);
 2/15=1,29=3/2;
 99//99;
 2/15=1,29=3/2;
 3/5=44,7=101,11=2,14=-2,25=1,30=1,71=1,74=-5/1,2,3;
 4/5=5,16=3,69=1/1;
 5/5=2,38=5/2;
 7/30=1/1,2,3,16;
 1/8=10,18=40,26=3/3(-5);
 2/15=1,29=3/2;
 99/9=1/99;
 Structure from the checkpoint file:  "checkpoint.chk"
 ------------------
 int_zmat_initalOpt
 ------------------
 Charge =  0 Multiplicity = 1
 Z-Matrix found in chk file.
 C
 C,1,R2
 C,1,R3,2,A3
 C,1,R4,2,A4,3,D4,0
 H,1,R5,2,A5,3,D5,0
 C,2,R6,1,A6,3,D6,0
 C,2,R7,1,A7,6,D7,0
 C,3,R8,1,A8,2,D8,0
 H,4,R9,1,A9,2,D9,0
 H,4,R10,1,A10,9,D10,0
 H,2,R11,1,A11,6,D11,0
 H,3,R12,1,A12,8,D12,0
 C,7,R13,2,A13,1,D13,0
 H,7,R14,2,A14,13,D14,0
 H,6,R15,2,A15,1,D15,0
 H,6,R16,2,A16,15,D16,0
 H,8,R17,3,A17,1,D17,0
 H,8,R18,3,A18,17,D18,0
 H,13,R19,7,A19,2,D19,0
 H,13,R20,7,A20,19,D20,0
      Variables:
 R2=1.58661409
 R3=1.49798088
 R4=1.55043617
 R5=1.09362115
 R6=1.54486355
 R7=1.49095435
 R8=1.32703999
 R9=1.09135112
 R10=1.08815662
 R11=1.09617105
 R12=1.08691856
 R13=1.32787247
 R14=1.08806241
 R15=1.08997909
 R16=1.09161295
 R17=1.08299271
 R18=1.08207007
 R19=1.08238754
 R20=1.08356562
 A3=114.98129629
 A4=87.33463793
 A5=112.77556822
 A6=88.282799
 A7=120.45930205
 A8=127.51484294
 A9=111.08268133
 A10=117.57467365
 A11=106.72890534
 A12=114.4329538
 A13=126.33620626
 A14=115.23138936
 A15=111.58401935
 A16=117.30177865
 A17=122.73780795
 A18=120.9849169
 A19=121.35852727
 A20=121.99820887
 D4=119.3488303
 D5=-124.74446751
 D6=-101.21995809
 D7=126.42331468
 D8=114.63184837
 D9=95.46255181
 D10=125.52839351
 D11=-109.66987263
 D12=178.7390972
 D13=-114.93563075
 D14=-179.88101448
 D15=94.20830546
 D16=126.41466947
 D17=-0.64495525
 D18=179.20560961
 D19=-180.31063808
 D20=181.2442492
 Recover connectivity data from disk.

 GradGradGradGradGradGradGradGradGradGradGradGradGradGradGradGradGradGrad
 Berny optimization.
 Initialization pass.
                       ----------------------------
                       !    Initial Parameters    !
                       ! (Angstroms and Degrees)  !
 ----------------------                            ----------------------
 !      Name          Value   Derivative information (Atomic Units)     !
 ------------------------------------------------------------------------
 !       R2          1.5866   estimate D2E/DX2                          !
 !       R3          1.498    estimate D2E/DX2                          !
 !       R4          1.5504   estimate D2E/DX2                          !
 !       R5          1.0936   estimate D2E/DX2                          !
 !       R6          1.5449   estimate D2E/DX2                          !
 !       R7          1.491    estimate D2E/DX2                          !
 !       R8          1.327    estimate D2E/DX2                          !
 !       R9          1.0914   estimate D2E/DX2                          !
 !       R10         1.0882   estimate D2E/DX2                          !
 !       R11         1.0962   estimate D2E/DX2                          !
 !       R12         1.0869   estimate D2E/DX2                          !
 !       R13         1.3279   estimate D2E/DX2                          !
 !       R14         1.0881   estimate D2E/DX2                          !
 !       R15         1.09     estimate D2E/DX2                          !
 !       R16         1.0916   estimate D2E/DX2                          !
 !       R17         1.083    estimate D2E/DX2                          !
 !       R18         1.0821   estimate D2E/DX2                          !
 !       R19         1.0824   estimate D2E/DX2                          !
 !       R20         1.0836   estimate D2E/DX2                          !
 !       A3        114.9813   estimate D2E/DX2                          !
 !       A4         87.3346   estimate D2E/DX2                          !
 !       A5        112.7756   estimate D2E/DX2                          !
 !       A6         88.2828   estimate D2E/DX2                          !
 !       A7        120.4593   estimate D2E/DX2                          !
 !       A8        127.5148   estimate D2E/DX2                          !
 !       A9        111.0827   estimate D2E/DX2                          !
 !       A10       117.5747   estimate D2E/DX2                          !
 !       A11       106.7289   estimate D2E/DX2                          !
 !       A12       114.433    estimate D2E/DX2                          !
 !       A13       126.3362   estimate D2E/DX2                          !
 !       A14       115.2314   estimate D2E/DX2                          !
 !       A15       111.584    estimate D2E/DX2                          !
 !       A16       117.3018   estimate D2E/DX2                          !
 !       A17       122.7378   estimate D2E/DX2                          !
 !       A18       120.9849   estimate D2E/DX2                          !
 !       A19       121.3585   estimate D2E/DX2                          !
 !       A20       121.9982   estimate D2E/DX2                          !
 !       D4        119.3488   estimate D2E/DX2                          !
 !       D5       -124.7445   estimate D2E/DX2                          !
 !       D6       -101.22     estimate D2E/DX2                          !
 !       D7        126.4233   estimate D2E/DX2                          !
 !       D8        114.6318   estimate D2E/DX2                          !
 !       D9         95.4626   estimate D2E/DX2                          !
 !       D10       125.5284   estimate D2E/DX2                          !
 !       D11      -109.6699   estimate D2E/DX2                          !
 !       D12       178.7391   estimate D2E/DX2                          !
 !       D13      -114.9356   estimate D2E/DX2                          !
 !       D14      -179.881    estimate D2E/DX2                          !
 !       D15        94.2083   estimate D2E/DX2                          !
 !       D16       126.4147   estimate D2E/DX2                          !
 !       D17        -0.645    estimate D2E/DX2                          !
 !       D18       179.2056   estimate D2E/DX2                          !
 !       D19      -180.3106   estimate D2E/DX2                          !
 !       D20       181.2442   estimate D2E/DX2                          !
 ------------------------------------------------------------------------
 Trust Radius=1.00D-01 FncErr=1.00D-07 GrdErr=1.00D-06 EigMax=2.50D+02 EigMin=1.00D-04
 Number of steps in this run=     64 maximum allowed number of steps=    108.
 GradGradGradGradGradGradGradGradGradGradGradGradGradGradGradGradGradGrad

 ---------------------------------------------------------------------------------------------------
                            Z-MATRIX (ANGSTROMS AND DEGREES)
   CD    Cent   Atom    N1       Length/X        N2       Alpha/Y        N3        Beta/Z          J
 ---------------------------------------------------------------------------------------------------
      1      1  C 
      2      2  C        1   1.586614(     1)
      3      3  C        1   1.497981(     2)      2  114.981(    20)
      4      4  C        1   1.550436(     3)      2   87.335(    21)      3  119.349(    38)      0
      5      5  H        1   1.093621(     4)      2  112.776(    22)      3 -124.744(    39)      0
      6      6  C        2   1.544864(     5)      1   88.283(    23)      3 -101.220(    40)      0
      7      7  C        2   1.490954(     6)      1  120.459(    24)      6  126.423(    41)      0
      8      8  C        3   1.327040(     7)      1  127.515(    25)      2  114.632(    42)      0
      9      9  H        4   1.091351(     8)      1  111.083(    26)      2   95.463(    43)      0
     10     10  H        4   1.088157(     9)      1  117.575(    27)      9  125.528(    44)      0
     11     11  H        2   1.096171(    10)      1  106.729(    28)      6 -109.670(    45)      0
     12     12  H        3   1.086919(    11)      1  114.433(    29)      8  178.739(    46)      0
     13     13  C        7   1.327872(    12)      2  126.336(    30)      1 -114.936(    47)      0
     14     14  H        7   1.088062(    13)      2  115.231(    31)     13 -179.881(    48)      0
     15     15  H        6   1.089979(    14)      2  111.584(    32)      1   94.208(    49)      0
     16     16  H        6   1.091613(    15)      2  117.302(    33)     15  126.415(    50)      0
     17     17  H        8   1.082993(    16)      3  122.738(    34)      1   -0.645(    51)      0
     18     18  H        8   1.082070(    17)      3  120.985(    35)     17  179.206(    52)      0
     19     19  H       13   1.082388(    18)      7  121.359(    36)      2 -180.311(    53)      0
     20     20  H       13   1.083566(    19)      7  121.998(    37)     19  181.244(    54)      0
 ---------------------------------------------------------------------------------------------------
                         Z-Matrix orientation:                         
 ---------------------------------------------------------------------
 Center     Atomic      Atomic             Coordinates (Angstroms)
 Number     Number       Type             X           Y           Z
 ---------------------------------------------------------------------
      1          6           0        0.000000    0.000000    0.000000
      2          6           0        0.000000    0.000000    1.586614
      3          6           0        1.357838    0.000000   -0.632631
      4          6           0       -0.759086   -1.349979    0.072099
      5          1           0       -0.574676    0.828563   -0.423365
      6          6           0       -0.300458   -1.514657    1.540320
      7          6           0        1.162840    0.547274    2.342418
      8          6           0        1.905081   -0.956820   -1.371586
      9          1           0       -1.837069   -1.198899   -0.006477
     10          1           0       -0.470812   -2.128173   -0.631745
     11          1           0       -0.900874    0.538945    1.902140
     12          1           0        1.931141    0.908391   -0.466674
     13          6           0        1.982677   -0.138895    3.129999
     14          1           0        1.333638    1.615016    2.221443
     15          1           0        0.612622   -2.106649    1.602648
     16          1           0       -1.021614   -1.904320    2.261233
     17          1           0        1.397968   -1.887614   -1.593696
     18          1           0        2.892029   -0.835413   -1.798284
     19          1           0        2.808553    0.341571    3.638571
     20          1           0        1.873768   -1.206276    3.281493
 ---------------------------------------------------------------------
                    Distance matrix (angstroms):
                    1          2          3          4          5
     1  C    0.000000
     2  C    1.586614   0.000000
     3  C    1.497981   2.601687   0.000000
     4  C    1.550436   2.166197   2.607768   0.000000
     5  H    1.093621   2.248730   2.113036   2.241771   0.000000
     6  C    2.181065   1.544864   3.125036   1.546975   3.069517
     7  C    2.671821   1.490954   3.031245   3.528132   3.278360
     8  C    2.534973   3.646339   1.327040   3.055583   3.199361
     9  H    2.193678   2.711111   3.469418   1.091351   2.424466
    10  H    2.269336   3.109968   2.805901   1.088157   2.965889
    11  H    2.172595   1.096171   3.437631   2.633853   2.366064
    12  H    2.184551   2.961498   1.086919   3.553566   2.507462
    13  C    3.707721   2.516414   3.816687   4.281909   4.483573
    14  H    3.053142   2.188578   3.279421   4.217863   3.354874
    15  H    2.716939   2.193976   3.160663   2.190140   3.758973
    16  H    3.127828   2.263900   4.202699   2.273439   3.856874
    17  H    2.838533   3.953704   2.118571   2.777915   3.555083
    18  H    3.506504   4.529821   2.100095   4.134459   4.083780
    19  H    4.609104   3.495020   4.523760   5.320630   5.308740
    20  H    3.966649   2.799772   4.128153   4.153646   4.884815
                    6          7          8          9         10
     6  C    0.000000
     7  C    2.652576   0.000000
     8  C    3.695238   4.075175   0.000000
     9  H    2.203057   4.191167   3.990716   0.000000
    10  H    2.263469   4.321166   2.750327   1.766683   0.000000
    11  H    2.169952   2.110172   4.563768   2.745794   3.703922
    12  H    3.857359   2.934568   2.073297   4.341873   3.875222
    13  C    3.103628   1.327872   4.575948   5.054855   4.911981
    14  H    3.595699   1.088062   4.455418   4.789064   5.040653
    15  H    1.089979   2.809503   3.440731   3.068270   2.483305
    16  H    1.091613   3.284622   4.760324   2.510996   2.953442
    17  H    3.584105   4.634324   1.082993   3.668659   2.115552
    18  H    4.669007   4.695458   1.082070   5.070213   3.786917
    19  H    4.184996   2.104922   5.253927   6.102559   5.923636
    20  H    2.802506   2.112396   4.659867   4.957935   4.654071
                   11         12         13         14         15
    11  H    0.000000
    12  H    3.710536   0.000000
    13  C    3.206551   3.746401   0.000000
    14  H    2.500585   2.842939   2.079166   0.000000
    15  H    3.062601   3.887294   2.842870   3.841037   0.000000
    16  H    2.472462   4.906280   3.591274   4.234917   1.773527
    17  H    4.836707   3.061388   5.070819   5.179560   3.298692
    18  H    5.474313   2.395275   5.059647   4.958970   4.286966
    19  H    4.100487   4.236056   1.082388   2.409416   3.867929
    20  H    3.556268   4.303936   1.083566   3.061884   2.284662
                   16         17         18         19         20
    16  H    0.000000
    17  H    4.551389   0.000000
    18  H    5.739237   1.838804   0.000000
    19  H    4.648792   5.859661   5.563420   0.000000
    20  H    3.148242   4.945511   5.194086   1.843138   0.000000
 Symmetry turned off by external request.
 Stoichiometry    C8H12
 Framework group  C1[X(C8H12)]
 Deg. of freedom    54
 Full point group                 C1      NOp   1
 Rotational constants (GHZ):           2.7929571           1.6970340           1.3163814
 Standard basis: def2TZVP (5D, 7F)
 The following finite field(s) will be applied:
 An electric field of             -0.0056 -0.0019  0.0046
   320 basis functions,   504 primitive gaussians,   360 cartesian basis functions
    30 alpha electrons       30 beta electrons
       nuclear repulsion energy       360.3735208664 Hartrees.
 NAtoms=   20 NActive=   20 NUniq=   20 SFac= 1.00D+00 NAtFMM=   60 NAOKFM=F Big=F
 Integral buffers will be    131072 words long.
 Raffenetti 2 integral format.
 Two-electron integral symmetry is turned off.
 One-electron integrals computed using PRISM.
   1 Symmetry operations used in ECPInt.
 ECPInt:  NShTT=    9316 NPrTT=   27240 LenC2=    9174 LenP2D=   21655.
 LDataN:  DoStor=T MaxTD1= 6 Len=  172
 NBasis=   320 RedAO= T EigKep=  3.43D-05  NBF=   320
 NBsUse=   320 1.00D-06 EigRej= -1.00D+00 NBFU=   320
 The nuclear repulsion energy is now       360.4826266060 hartrees.
 Initial guess from the checkpoint file:  "checkpoint.chk"
 B after Tr=     0.000000    0.000000    0.000000
         Rot=    1.000000    0.000000   -0.000000    0.000000 Ang=   0.00 deg.
 Requested convergence on RMS density matrix=1.00D-08 within 128 cycles.
 Requested convergence on MAX density matrix=1.00D-06.
 Requested convergence on             energy=1.00D-06.
 No special actions if energy rises.
 SCF Done:  E(RB3LYP) =  -312.118422547     A.U. after   10 cycles
            NFock= 10  Conv=0.46D-08     -V/T= 2.0056
   1 Symmetry operations used in ECPInt.
 ECPInt:  NShTT=    9316 NPrTT=   27240 LenC2=    9174 LenP2D=   21655.
 LDataN:  DoStor=T MaxTD1= 7 Len=  274
 Calling FoFJK, ICntrl=      2127 FMM=F ISym2X=0 I1Cent= 0 IOpClX= 0 NMat=1 NMatS=1 NMatT=0.
 -------------------------------------------------------------------
 Center     Atomic                   Forces (Hartrees/Bohr)
 Number     Number              X              Y              Z
 -------------------------------------------------------------------
      1        6           0.000339995    0.000306338   -0.000124171
      2        6          -0.000023122    0.000000096   -0.000065507
      3        6           0.000635225   -0.000365919   -0.000015515
      4        6           0.000016502   -0.000207075   -0.000056728
      5        1          -0.000099110   -0.000090619    0.000079948
      6        6           0.000452494    0.000185551   -0.000439389
      7        6          -0.000262893    0.000126810    0.000294838
      8        6          -0.000048193    0.000195744    0.000358697
      9        1          -0.000344513    0.000057820   -0.000054264
     10        1           0.000095741    0.000104762    0.000000531
     11        1          -0.000274763    0.000175839    0.000103421
     12        1          -0.000132224   -0.000032562   -0.000141817
     13        6          -0.000259480    0.000217356    0.000553532
     14        1           0.000142956   -0.000155330   -0.000191193
     15        1          -0.000006445    0.000033320   -0.000014009
     16        1          -0.000361375   -0.000246954    0.000433173
     17        1          -0.000004726   -0.000070705   -0.000166620
     18        1          -0.000149115   -0.000010391   -0.000080512
     19        1           0.000145469   -0.000065045   -0.000258881
     20        1           0.000137576   -0.000159036   -0.000215535
 -------------------------------------------------------------------
 Cartesian Forces:  Max     0.000635225 RMS     0.000225094
 -----------------------------------------------------------------------------------------------
                       Internal Coordinate Forces (Hartree/Bohr or radian)
  Cent   Atom   N1       Length/X         N2         Alpha/Y        N3         Beta/Z          J
 -----------------------------------------------------------------------------------------------
      1  C 
      2  C        1   0.000200(     1)
      3  C        1   0.000292(     2)      2   0.000149(    20)
      4  C        1   0.000147(     3)      2   0.000551(    21)      3   0.000350(    38)     0
      5  H        1  -0.000048(     4)      2  -0.000138(    22)      3  -0.000254(    39)     0
      6  C        2   0.000012(     5)      1  -0.000063(    23)      3   0.000140(    40)     0
      7  C        2   0.000005(     6)      1   0.000067(    24)      6  -0.000220(    41)     0
      8  C        3  -0.000228(     7)      1  -0.000184(    25)      2  -0.000043(    42)     0
      9  H        4   0.000352(     8)      1  -0.000024(    26)      2   0.000107(    43)     0
     10  H        4  -0.000050(     9)      1  -0.000267(    27)      9   0.000052(    44)     0
     11  H        2   0.000342(    10)      1   0.000011(    28)      6  -0.000020(    45)     0
     12  H        3  -0.000119(    11)      1  -0.000025(    29)      8  -0.000292(    46)     0
     13  C        7   0.000065(    12)      2   0.000031(    30)      1  -0.000107(    47)     0
     14  H        7  -0.000109(    13)      2   0.000009(    31)     13  -0.000490(    48)     0
     15  H        6  -0.000024(    14)      2  -0.000049(    32)      1  -0.000128(    49)     0
     16  H        6   0.000613(    15)      2   0.000042(    33)     15  -0.000102(    50)     0
     17  H        8   0.000097(    16)      3   0.000217(    34)      1  -0.000025(    51)     0
     18  H        8  -0.000105(    17)      3   0.000108(    35)     17  -0.000214(    52)     0
     19  H       13  -0.000040(    18)      7  -0.000023(    36)      2  -0.000043(    53)     0
     20  H       13   0.000113(    19)      7  -0.000049(    37)     19   0.000483(    54)     0
 -----------------------------------------------------------------------------------------------
 Internal  Forces:  Max     0.000612962 RMS     0.000207668

 GradGradGradGradGradGradGradGradGradGradGradGradGradGradGradGradGradGrad
 Berny optimization.
 Search for a local minimum.
 Step number   1 out of a maximum of   64
 All quantities printed in internal units (Hartrees-Bohrs-Radians)
 Second derivative matrix not updated -- first step.
 ITU=  0
     Eigenvalues ---    0.00595   0.02845   0.03424   0.04411   0.05920
     Eigenvalues ---    0.07580   0.08085   0.08268   0.11983   0.13248
     Eigenvalues ---    0.14650   0.14992   0.15652   0.16628   0.17289
     Eigenvalues ---    0.18736   0.19518   0.21902   0.22276   0.23657
     Eigenvalues ---    0.24525   0.25105   0.26138   0.27825   0.28355
     Eigenvalues ---    0.29572   0.32590   0.33344   0.33680   0.34109
     Eigenvalues ---    0.34398   0.34511   0.34628   0.34658   0.34816
     Eigenvalues ---    0.35027   0.35038   0.35172   0.35567   0.35635
     Eigenvalues ---    0.35708   0.35745   0.38763   0.44690   0.44945
     Eigenvalues ---    0.47653   0.49729   0.52491   0.57693   0.60011
     Eigenvalues ---    0.60211   0.85492   1.46716   5.66154
 RFO step:  Lambda=-1.32813999D-05 EMin= 5.94859085D-03
 Linear search not attempted -- first point.
 Variable       Old X    -DE/DX   Delta X   Delta X   Delta X     New X
                                 (Linear)    (Quad)   (Total)
    R2        2.99827   0.00020   0.00000   0.00060   0.00060   2.99887
    R3        2.83077   0.00029   0.00000   0.00090   0.00090   2.83167
    R4        2.92990   0.00015   0.00000   0.00025   0.00025   2.93015
    R5        2.06664  -0.00005   0.00000  -0.00014  -0.00014   2.06650
    R6        2.91937   0.00001   0.00000   0.00028   0.00028   2.91965
    R7        2.81750   0.00000   0.00000   0.00000   0.00000   2.81750
    R8        2.50774  -0.00023   0.00000  -0.00038  -0.00038   2.50736
    R9        2.06235   0.00035   0.00000   0.00101   0.00101   2.06336
   R10        2.05632  -0.00005   0.00000  -0.00014  -0.00014   2.05618
   R11        2.07146   0.00034   0.00000   0.00100   0.00100   2.07246
   R12        2.05398  -0.00012   0.00000  -0.00033  -0.00033   2.05364
   R13        2.50932   0.00006   0.00000   0.00010   0.00010   2.50942
   R14        2.05614  -0.00011   0.00000  -0.00032  -0.00032   2.05582
   R15        2.05976  -0.00002   0.00000  -0.00005  -0.00005   2.05971
   R16        2.06285   0.00061   0.00000   0.00179   0.00179   2.06464
   R17        2.04656   0.00010   0.00000   0.00027   0.00027   2.04683
   R18        2.04482  -0.00011   0.00000  -0.00030  -0.00030   2.04452
   R19        2.04542  -0.00004   0.00000  -0.00010  -0.00010   2.04531
   R20        2.04764   0.00011   0.00000   0.00033   0.00033   2.04797
    A3        2.00680   0.00015   0.00000   0.00069   0.00069   2.00749
    A4        1.52428   0.00055   0.00000  -0.00055  -0.00055   1.52372
    A5        1.96830  -0.00014   0.00000  -0.00040  -0.00040   1.96791
    A6        1.54083  -0.00006   0.00000  -0.00158  -0.00158   1.53925
    A7        2.10241   0.00007   0.00000   0.00024   0.00024   2.10265
    A8        2.22555  -0.00018   0.00000  -0.00043  -0.00043   2.22513
    A9        1.93876  -0.00002   0.00000   0.00094   0.00094   1.93970
   A10        2.05207  -0.00027   0.00000  -0.00138  -0.00138   2.05069
   A11        1.86277   0.00001   0.00000   0.00067   0.00067   1.86344
   A12        1.99723  -0.00002   0.00000   0.00010   0.00010   1.99733
   A13        2.20498   0.00003   0.00000   0.00024   0.00024   2.20522
   A14        2.01117   0.00001   0.00000  -0.00008  -0.00008   2.01109
   A15        1.94751  -0.00005   0.00000  -0.00059  -0.00059   1.94692
   A16        2.04730   0.00004   0.00000   0.00074   0.00074   2.04805
   A17        2.14218   0.00022   0.00000   0.00071   0.00071   2.14289
   A18        2.11159   0.00011   0.00000  -0.00008  -0.00008   2.11151
   A19        2.11811  -0.00002   0.00000  -0.00008  -0.00008   2.11803
   A20        2.12927  -0.00005   0.00000  -0.00008  -0.00008   2.12919
    D4        2.08303   0.00035   0.00000  -0.00090  -0.00090   2.08213
    D5       -2.17720  -0.00025   0.00000  -0.00212  -0.00212  -2.17932
    D6       -1.76662   0.00014   0.00000   0.00702   0.00702  -1.75960
    D7        2.20650  -0.00022   0.00000  -0.00148  -0.00148   2.20502
    D8        2.00070  -0.00004   0.00000   0.00066   0.00066   2.00136
    D9        1.66614   0.00011   0.00000  -0.00564  -0.00564   1.66050
   D10        2.19088   0.00005   0.00000   0.00077   0.00077   2.19166
   D11       -1.91410  -0.00002   0.00000  -0.00003  -0.00003  -1.91413
   D12        3.11959  -0.00029   0.00000  -0.00296  -0.00296   3.11663
   D13       -2.00601  -0.00011   0.00000   0.00371   0.00371  -2.00229
   D14       -3.13952  -0.00049   0.00000  -0.00607  -0.00607  -3.14558
   D15        1.64425  -0.00013   0.00000  -0.00685  -0.00685   1.63740
   D16        2.20635  -0.00010   0.00000  -0.00039  -0.00039   2.20596
   D17       -0.01126  -0.00003   0.00000   0.00005   0.00005  -0.01121
   D18        3.12773  -0.00021   0.00000  -0.00262  -0.00262   3.12511
   D19       -3.14701  -0.00004   0.00000  -0.00720  -0.00720  -3.15422
   D20        3.16331   0.00048   0.00000   0.00827   0.00827   3.17158
         Item               Value     Threshold  Converged?
 Maximum Force            0.000613     0.000450     NO 
 RMS     Force            0.000208     0.000300     YES
 Maximum Displacement     0.008273     0.001800     NO 
 RMS     Displacement     0.002505     0.001200     NO 
 Predicted change in Energy=-6.640697D-06
 GradGradGradGradGradGradGradGradGradGradGradGradGradGradGradGradGradGrad

 ---------------------------------------------------------------------------------------------------
                            Z-MATRIX (ANGSTROMS AND DEGREES)
   CD    Cent   Atom    N1       Length/X        N2       Alpha/Y        N3        Beta/Z          J
 ---------------------------------------------------------------------------------------------------
      1      1  C 
      2      2  C        1   1.586933(     1)
      3      3  C        1   1.498456(     2)      2  115.021(    20)
      4      4  C        1   1.550571(     3)      2   87.303(    21)      3  119.297(    38)      0
      5      5  H        1   1.093545(     4)      2  112.753(    22)      3 -124.866(    39)      0
      6      6  C        2   1.545014(     5)      1   88.192(    23)      3 -100.818(    40)      0
      7      7  C        2   1.490957(     6)      1  120.473(    24)      6  126.338(    41)      0
      8      8  C        3   1.326839(     7)      1  127.490(    25)      2  114.669(    42)      0
      9      9  H        4   1.091885(     8)      1  111.137(    26)      2   95.139(    43)      0
     10     10  H        4   1.088082(     9)      1  117.496(    27)      9  125.573(    44)      0
     11     11  H        2   1.096700(    10)      1  106.767(    28)      6 -109.672(    45)      0
     12     12  H        3   1.086742(    11)      1  114.439(    29)      8  178.570(    46)      0
     13     13  C        7   1.327927(    12)      2  126.350(    30)      1 -114.723(    47)      0
     14     14  H        7   1.087895(    13)      2  115.227(    31)     13 -180.229(    48)      0
     15     15  H        6   1.089953(    14)      2  111.550(    32)      1   93.816(    49)      0
     16     16  H        6   1.092560(    15)      2  117.344(    33)     15  126.392(    50)      0
     17     17  H        8   1.083137(    16)      3  122.778(    34)      1   -0.642(    51)      0
     18     18  H        8   1.081914(    17)      3  120.980(    35)     17  179.056(    52)      0
     19     19  H       13   1.082333(    18)      7  121.354(    36)      2 -180.723(    53)      0
     20     20  H       13   1.083738(    19)      7  121.994(    37)     19  181.718(    54)      0
 ---------------------------------------------------------------------------------------------------
                         Z-Matrix orientation:                         
 ---------------------------------------------------------------------
 Center     Atomic      Atomic             Coordinates (Angstroms)
 Number     Number       Type             X           Y           Z
 ---------------------------------------------------------------------
      1          6           0        0.000000    0.000000    0.000000
      2          6           0        0.000000    0.000000    1.586933
      3          6           0        1.357834    0.000000   -0.633764
      4          6           0       -0.757921   -1.350741    0.072962
      5          1           0       -0.576486    0.827424   -0.422936
      6          6           0       -0.289834   -1.516802    1.538196
      7          6           0        1.159632    0.553625    2.343045
      8          6           0        1.903752   -0.956700   -1.373493
      9          1           0       -1.837066   -1.201115    0.000359
     10          1           0       -0.471294   -2.126437   -0.634191
     11          1           0       -0.904872    0.532785    1.903314
     12          1           0        1.930356    0.909102   -0.470181
     13          6           0        1.985648   -0.128558    3.127720
     14          1           0        1.325831    1.621729    2.220370
     15          1           0        0.628201   -2.101785    1.593002
     16          1           0       -1.003745   -1.914869    2.263152
     17          1           0        1.396382   -1.887418   -1.596038
     18          1           0        2.889302   -0.834711   -1.802849
     19          1           0        2.812335    0.355534    3.631395
     20          1           0        1.885547   -1.197496    3.275496
 ---------------------------------------------------------------------
                    Distance matrix (angstroms):
                    1          2          3          4          5
     1  C    0.000000
     2  C    1.586933   0.000000
     3  C    1.498456   2.602923   0.000000
     4  C    1.550571   2.165884   2.607754   0.000000
     5  H    1.093545   2.248675   2.114396   2.241258   0.000000
     6  C    2.179619   1.545014   3.119762   1.547124   3.069789
     7  C    2.672285   1.490957   3.034333   3.529433   3.277152
     8  C    2.534961   3.647419   1.326839   3.054833   3.199724
     9  H    2.194878   2.708266   3.471624   1.091885   2.425533
    10  H    2.268491   3.110827   2.804897   1.088082   2.963273
    11  H    2.173766   1.096700   3.440998   2.630486   2.367719
    12  H    2.184905   2.963858   1.086742   3.553693   2.508617
    13  C    3.707014   2.516614   3.815683   4.283976   4.481695
    14  H    3.052519   2.188395   3.282851   4.217696   3.352133
    15  H    2.711050   2.193667   3.147753   2.189960   3.754403
    16  H    3.129870   2.265282   4.199512   2.274996   3.862356
    17  H    2.838937   3.955190   2.118915   2.777517   3.555100
    18  H    3.506433   4.531603   2.099737   4.133666   4.083936
    19  H    4.606806   3.495062   4.520349   5.321706   5.305128
    20  H    3.964614   2.800095   4.122475   4.155435   4.882654
                    6          7          8          9         10
     6  C    0.000000
     7  C    2.652434   0.000000
     8  C    3.688288   4.080128   0.000000
     9  H    2.204207   4.188972   3.992609   0.000000
    10  H    2.263591   4.325111   2.748763   1.767543   0.000000
    11  H    2.170804   2.110918   4.565567   2.737998   3.701133
    12  H    3.853289   2.938472   2.073138   4.343719   3.874187
    13  C    3.103486   1.327927   4.577493   5.054098   4.917322
    14  H    3.595290   1.087895   4.460733   4.785479   5.042511
    15  H    1.089953   2.810015   3.426126   3.070058   2.483925
    16  H    1.092560   3.283298   4.753610   2.514777   2.953449
    17  H    3.578282   4.640163   1.083137   3.670787   2.114354
    18  H    4.662053   4.701879   1.081914   5.071919   3.785225
    19  H    4.184564   2.104878   5.253226   6.101189   5.927699
    20  H    2.802223   2.112545   4.655257   4.958265   4.658678
                   11         12         13         14         15
    11  H    0.000000
    12  H    3.716667   0.000000
    13  C    3.208060   3.744954   0.000000
    14  H    2.502471   2.848219   2.078977   0.000000
    15  H    3.063913   3.875277   2.844582   3.839900   0.000000
    16  H    2.475938   4.904576   3.588154   4.235124   1.774059
    17  H    4.837212   3.061569   5.074909   5.184983   3.287252
    18  H    5.477358   2.395092   5.062188   4.966370   4.271985
    19  H    4.103085   4.231695   1.082333   2.409136   3.868321
    20  H    3.558539   4.297658   1.083738   3.061797   2.286798
                   16         17         18         19         20
    16  H    0.000000
    17  H    4.544745   0.000000
    18  H    5.731921   1.838417   0.000000
    19  H    4.646426   5.861894   5.563597   0.000000
    20  H    3.144435   4.944403   5.189290   1.843231   0.000000
 Symmetry turned off by external request.
 Stoichiometry    C8H12
 Framework group  C1[X(C8H12)]
 Deg. of freedom    54
 Full point group                 C1      NOp   1
 Rotational constants (GHZ):           2.7959581           1.6956550           1.3166150
 Standard basis: def2TZVP (5D, 7F)
 The following finite field(s) will be applied:
 An electric field of             -0.0056 -0.0019  0.0046
   320 basis functions,   504 primitive gaussians,   360 cartesian basis functions
    30 alpha electrons       30 beta electrons
       nuclear repulsion energy       360.3754548325 Hartrees.
 NAtoms=   20 NActive=   20 NUniq=   20 SFac= 1.00D+00 NAtFMM=   60 NAOKFM=F Big=F
 Integral buffers will be    131072 words long.
 Raffenetti 2 integral format.
 Two-electron integral symmetry is turned off.
 One-electron integrals computed using PRISM.
   1 Symmetry operations used in ECPInt.
 ECPInt:  NShTT=    9316 NPrTT=   27240 LenC2=    9174 LenP2D=   21658.
 LDataN:  DoStor=T MaxTD1= 6 Len=  172
 NBasis=   320 RedAO= T EigKep=  3.46D-05  NBF=   320
 NBsUse=   320 1.00D-06 EigRej= -1.00D+00 NBFU=   320
 The nuclear repulsion energy is now       360.4827031524 hartrees.
 Initial guess from the checkpoint file:  "checkpoint.chk"
 B after Tr=    -0.001997   -0.002437   -0.001063
         Rot=    0.999998    0.000489   -0.000662   -0.001611 Ang=   0.21 deg.
 Requested convergence on RMS density matrix=1.00D-08 within 128 cycles.
 Requested convergence on MAX density matrix=1.00D-06.
 Requested convergence on             energy=1.00D-06.
 No special actions if energy rises.
 SCF Done:  E(RB3LYP) =  -312.118427584     A.U. after    8 cycles
            NFock=  8  Conv=0.61D-08     -V/T= 2.0056
   1 Symmetry operations used in ECPInt.
 ECPInt:  NShTT=    9316 NPrTT=   27240 LenC2=    9174 LenP2D=   21658.
 LDataN:  DoStor=T MaxTD1= 7 Len=  274
 Calling FoFJK, ICntrl=      2127 FMM=F ISym2X=0 I1Cent= 0 IOpClX= 0 NMat=1 NMatS=1 NMatT=0.
 -------------------------------------------------------------------
 Center     Atomic                   Forces (Hartrees/Bohr)
 Number     Number              X              Y              Z
 -------------------------------------------------------------------
      1        6          -0.000045388    0.000456286   -0.000025169
      2        6           0.000092007   -0.000223102    0.000003111
      3        6           0.000113154   -0.000188575    0.000105661
      4        6           0.000307545   -0.000248740   -0.000009460
      5        1           0.000045166    0.000024261   -0.000026011
      6        6          -0.000347001    0.000096076    0.000071848
      7        6          -0.000040136    0.000012036    0.000020084
      8        6          -0.000063450   -0.000000877    0.000111753
      9        1           0.000032586    0.000069950    0.000024335
     10        1          -0.000014267   -0.000006047   -0.000007836
     11        1          -0.000046541   -0.000017915   -0.000099704
     12        1          -0.000037598    0.000008111   -0.000033906
     13        6          -0.000101930    0.000021115    0.000181314
     14        1           0.000040763    0.000011163   -0.000041513
     15        1          -0.000005184    0.000052878   -0.000050001
     16        1          -0.000027412   -0.000037006    0.000042777
     17        1           0.000025968   -0.000001997   -0.000043727
     18        1          -0.000013496    0.000000021   -0.000071672
     19        1           0.000058676   -0.000017168   -0.000083968
     20        1           0.000026538   -0.000010470   -0.000067914
 -------------------------------------------------------------------
 Cartesian Forces:  Max     0.000456286 RMS     0.000111394
 -----------------------------------------------------------------------------------------------
                       Internal Coordinate Forces (Hartree/Bohr or radian)
  Cent   Atom   N1       Length/X         N2         Alpha/Y        N3         Beta/Z          J
 -----------------------------------------------------------------------------------------------
      1  C 
      2  C        1  -0.000024(     1)
      3  C        1  -0.000007(     2)      2  -0.000013(    20)
      4  C        1   0.000002(     3)      2  -0.000037(    21)      3  -0.000920(    38)     0
      5  H        1   0.000005(     4)      2   0.000054(    22)      3   0.000097(    39)     0
      6  C        2  -0.000041(     5)      1   0.000138(    23)      3  -0.001039(    40)     0
      7  C        2  -0.000002(     6)      1  -0.000086(    24)      6  -0.000082(    41)     0
      8  C        3  -0.000017(     7)      1  -0.000082(    25)      2  -0.000011(    42)     0
      9  H        4  -0.000024(     8)      1  -0.000148(    26)      2  -0.000078(    43)     0
     10  H        4   0.000006(     9)      1   0.000021(    27)      9  -0.000023(    44)     0
     11  H        2   0.000001(    10)      1  -0.000216(    28)      6   0.000077(    45)     0
     12  H        3  -0.000018(    11)      1  -0.000028(    29)      8  -0.000086(    46)     0
     13  C        7   0.000010(    12)      2  -0.000055(    30)      1  -0.000049(    47)     0
     14  H        7   0.000022(    13)      2   0.000012(    31)     13  -0.000102(    48)     0
     15  H        6  -0.000035(    14)      2  -0.000081(    32)      1  -0.000121(    49)     0
     16  H        6   0.000060(    15)      2   0.000029(    33)     15  -0.000024(    50)     0
     17  H        8  -0.000001(    16)      3   0.000091(    34)      1  -0.000070(    51)     0
     18  H        8   0.000016(    17)      3   0.000062(    35)     17  -0.000113(    52)     0
     19  H       13  -0.000002(    18)      7  -0.000008(    36)      2  -0.000058(    53)     0
     20  H       13  -0.000001(    19)      7  -0.000042(    37)     19   0.000123(    54)     0
 -----------------------------------------------------------------------------------------------
 Internal  Forces:  Max     0.001038603 RMS     0.000200353

 GradGradGradGradGradGradGradGradGradGradGradGradGradGradGradGradGradGrad
 Berny optimization.
 Search for a local minimum.
 Step number   2 out of a maximum of   64
 All quantities printed in internal units (Hartrees-Bohrs-Radians)
 Update second derivatives using D2CorN and points    1    2
 DE= -5.04D-06 DEPred=-6.64D-06 R= 7.59D-01
 TightC=F SS=  1.41D+00  RLast= 1.84D-02 DXNew= 1.6818D-01 5.5218D-02
 Trust test= 7.59D-01 RLast= 1.84D-02 DXMaxT set to 1.00D-01
 ITU=  1  0
     Eigenvalues ---    0.01948   0.02712   0.03425   0.04056   0.05874
     Eigenvalues ---    0.07566   0.08090   0.08269   0.11987   0.13242
     Eigenvalues ---    0.14652   0.14984   0.15652   0.16709   0.17284
     Eigenvalues ---    0.18721   0.19518   0.21911   0.22254   0.23662
     Eigenvalues ---    0.24526   0.25118   0.26123   0.27823   0.28356
     Eigenvalues ---    0.29568   0.32591   0.33344   0.33681   0.34109
     Eigenvalues ---    0.34398   0.34484   0.34609   0.34669   0.34816
     Eigenvalues ---    0.35027   0.35040   0.35170   0.35567   0.35635
     Eigenvalues ---    0.35708   0.35747   0.38759   0.44692   0.44945
     Eigenvalues ---    0.47652   0.49718   0.52492   0.57685   0.60011
     Eigenvalues ---    0.60209   0.85510   1.46846   5.66164
 RFO step:  Lambda=-9.96703602D-06 EMin= 1.94798047D-02
 Quartic linear search produced a step of -0.19511.
 Variable       Old X    -DE/DX   Delta X   Delta X   Delta X     New X
                                 (Linear)    (Quad)   (Total)
    R2        2.99887  -0.00002  -0.00012   0.00000  -0.00012   2.99875
    R3        2.83167  -0.00001  -0.00018   0.00020   0.00003   2.83170
    R4        2.93015   0.00000  -0.00005   0.00012   0.00008   2.93023
    R5        2.06650   0.00000   0.00003  -0.00002   0.00001   2.06651
    R6        2.91965  -0.00004  -0.00006   0.00012   0.00006   2.91971
    R7        2.81750  -0.00000  -0.00000   0.00002   0.00002   2.81752
    R8        2.50736  -0.00002   0.00007  -0.00011  -0.00003   2.50733
    R9        2.06336  -0.00002  -0.00020   0.00021   0.00001   2.06337
   R10        2.05618   0.00001   0.00003  -0.00002   0.00000   2.05618
   R11        2.07246   0.00000  -0.00020   0.00025   0.00006   2.07252
   R12        2.05364  -0.00002   0.00007  -0.00012  -0.00005   2.05359
   R13        2.50942   0.00001  -0.00002   0.00004   0.00002   2.50944
   R14        2.05582   0.00002   0.00006  -0.00001   0.00005   2.05588
   R15        2.05971  -0.00004   0.00001  -0.00011  -0.00010   2.05961
   R16        2.06464   0.00006  -0.00035   0.00053   0.00018   2.06482
   R17        2.04683  -0.00000  -0.00005   0.00006   0.00001   2.04684
   R18        2.04452   0.00002   0.00006  -0.00004   0.00002   2.04454
   R19        2.04531  -0.00000   0.00002  -0.00002  -0.00000   2.04531
   R20        2.04797  -0.00000  -0.00006   0.00006   0.00000   2.04797
    A3        2.00749  -0.00001  -0.00013  -0.00056  -0.00070   2.00679
    A4        1.52372  -0.00004   0.00011   0.00153   0.00164   1.52536
    A5        1.96791   0.00005   0.00008  -0.00014  -0.00006   1.96785
    A6        1.53925   0.00014   0.00031   0.00150   0.00181   1.54106
    A7        2.10265  -0.00009  -0.00005   0.00007   0.00003   2.10268
    A8        2.22513  -0.00008   0.00008  -0.00028  -0.00019   2.22493
    A9        1.93970  -0.00015  -0.00018  -0.00128  -0.00147   1.93824
   A10        2.05069   0.00002   0.00027   0.00013   0.00040   2.05109
   A11        1.86344  -0.00022  -0.00013  -0.00118  -0.00131   1.86213
   A12        1.99733  -0.00003  -0.00002   0.00006   0.00004   1.99737
   A13        2.20522  -0.00006  -0.00005  -0.00042  -0.00046   2.20476
   A14        2.01109   0.00001   0.00002   0.00021   0.00023   2.01131
   A15        1.94692  -0.00008   0.00012  -0.00042  -0.00031   1.94661
   A16        2.04805   0.00003  -0.00015  -0.00020  -0.00035   2.04770
   A17        2.14289   0.00009  -0.00014   0.00034   0.00021   2.14309
   A18        2.11151   0.00006   0.00002   0.00002   0.00003   2.11154
   A19        2.11803  -0.00001   0.00002   0.00009   0.00011   2.11814
   A20        2.12919  -0.00004   0.00002  -0.00042  -0.00041   2.12878
    D4        2.08213  -0.00092   0.00018   0.00160   0.00178   2.08391
    D5       -2.17932   0.00010   0.00041   0.00183   0.00224  -2.17708
    D6       -1.75960  -0.00104  -0.00137  -0.01098  -0.01235  -1.77196
    D7        2.20502  -0.00008   0.00029   0.00032   0.00061   2.20563
    D8        2.00136  -0.00001  -0.00013   0.00180   0.00167   2.00303
    D9        1.66050  -0.00008   0.00110   0.00897   0.01007   1.67057
   D10        2.19166  -0.00002  -0.00015  -0.00101  -0.00116   2.19050
   D11       -1.91413   0.00008   0.00001  -0.00040  -0.00039  -1.91452
   D12        3.11663  -0.00009   0.00058  -0.00224  -0.00166   3.11497
   D13       -2.00229  -0.00005  -0.00072   0.00063  -0.00010  -2.00239
   D14       -3.14558  -0.00010   0.00118  -0.00400  -0.00282  -3.14840
   D15        1.63740  -0.00012   0.00134   0.00884   0.01018   1.64758
   D16        2.20596  -0.00002   0.00008  -0.00013  -0.00006   2.20591
   D17       -0.01121  -0.00007  -0.00001  -0.00055  -0.00056  -0.01177
   D18        3.12511  -0.00011   0.00051  -0.00181  -0.00130   3.12381
   D19       -3.15422  -0.00006   0.00141  -0.00669  -0.00528  -3.15950
   D20        3.17158   0.00012  -0.00161   0.00600   0.00439   3.17597
         Item               Value     Threshold  Converged?
 Maximum Force            0.001039     0.000450     NO 
 RMS     Force            0.000200     0.000300     YES
 Maximum Displacement     0.012354     0.001800     NO 
 RMS     Displacement     0.002860     0.001200     NO 
 Predicted change in Energy=-6.318601D-06
 GradGradGradGradGradGradGradGradGradGradGradGradGradGradGradGradGradGrad

 ---------------------------------------------------------------------------------------------------
                            Z-MATRIX (ANGSTROMS AND DEGREES)
   CD    Cent   Atom    N1       Length/X        N2       Alpha/Y        N3        Beta/Z          J
 ---------------------------------------------------------------------------------------------------
      1      1  C 
      2      2  C        1   1.586871(     1)
      3      3  C        1   1.498471(     2)      2  114.981(    20)
      4      4  C        1   1.550611(     3)      2   87.397(    21)      3  119.399(    38)      0
      5      5  H        1   1.093549(     4)      2  112.749(    22)      3 -124.737(    39)      0
      6      6  C        2   1.545047(     5)      1   88.296(    23)      3 -101.526(    40)      0
      7      7  C        2   1.490965(     6)      1  120.475(    24)      6  126.373(    41)      0
      8      8  C        3   1.326822(     7)      1  127.479(    25)      2  114.765(    42)      0
      9      9  H        4   1.091891(     8)      1  111.053(    26)      2   95.716(    43)      0
     10     10  H        4   1.088085(     9)      1  117.519(    27)      9  125.506(    44)      0
     11     11  H        2   1.096729(    10)      1  106.692(    28)      6 -109.694(    45)      0
     12     12  H        3   1.086714(    11)      1  114.441(    29)      8  178.474(    46)      0
     13     13  C        7   1.327939(    12)      2  126.323(    30)      1 -114.728(    47)      0
     14     14  H        7   1.087922(    13)      2  115.240(    31)     13 -180.390(    48)      0
     15     15  H        6   1.089897(    14)      2  111.532(    32)      1   94.399(    49)      0
     16     16  H        6   1.092654(    15)      2  117.325(    33)     15  126.389(    50)      0
     17     17  H        8   1.083143(    16)      3  122.790(    34)      1   -0.674(    51)      0
     18     18  H        8   1.081924(    17)      3  120.982(    35)     17  178.981(    52)      0
     19     19  H       13   1.082331(    18)      7  121.360(    36)      2 -181.026(    53)      0
     20     20  H       13   1.083738(    19)      7  121.970(    37)     19  181.970(    54)      0
 ---------------------------------------------------------------------------------------------------
                         Z-Matrix orientation:                         
 ---------------------------------------------------------------------
 Center     Atomic      Atomic             Coordinates (Angstroms)
 Number     Number       Type             X           Y           Z
 ---------------------------------------------------------------------
      1          6           0        0.000000    0.000000    0.000000
      2          6           0        0.000000    0.000000    1.586871
      3          6           0        1.358290    0.000000   -0.632822
      4          6           0       -0.760398   -1.349529    0.070424
      5          1           0       -0.574645    0.828740   -0.422875
      6          6           0       -0.308574   -1.513222    1.540931
      7          6           0        1.166040    0.539966    2.343022
      8          6           0        1.903832   -0.956095   -1.373580
      9          1           0       -1.838373   -1.197181   -0.013155
     10          1           0       -0.469098   -2.127951   -0.631810
     11          1           0       -0.898386    0.544501    1.901888
     12          1           0        1.930718    0.909060   -0.468859
     13          6           0        1.983599   -0.152375    3.127677
     14          1           0        1.346676    1.605510    2.218274
     15          1           0        0.601535   -2.109244    1.606767
     16          1           0       -1.034473   -1.899157    2.260665
     17          1           0        1.396171   -1.886336   -1.597476
     18          1           0        2.889056   -0.833674   -1.803588
     19          1           0        2.818924    0.320453    3.627784
     20          1           0        1.869652   -1.219909    3.275584
 ---------------------------------------------------------------------
                    Distance matrix (angstroms):
                    1          2          3          4          5
     1  C    0.000000
     2  C    1.586871   0.000000
     3  C    1.498471   2.602305   0.000000
     4  C    1.550611   2.167729   2.608567   0.000000
     5  H    1.093549   2.248579   2.113558   2.241139   0.000000
     6  C    2.181634   1.545047   3.129453   1.547040   3.067916
     7  C    2.672258   1.490965   3.030539   3.527897   3.280786
     8  C    2.534840   3.647323   1.326822   3.055824   3.198800
     9  H    2.193862   2.715316   3.469278   1.091891   2.422650
    10  H    2.268791   3.109787   2.804911   1.088085   2.965942
    11  H    2.172730   1.096729   3.437124   2.638305   2.364344
    12  H    2.184924   2.963122   1.086714   3.554456   2.507072
    13  C    3.706784   2.516340   3.815177   4.278959   4.484821
    14  H    3.051547   2.188576   3.272085   4.217259   3.357158
    15  H    2.718907   2.193434   3.168177   2.189151   3.759601
    16  H    3.128504   2.265156   4.207658   2.274723   3.854121
    17  H    2.838923   3.955708   2.119023   2.778640   3.554637
    18  H    3.506364   4.531763   2.099750   4.134796   4.082550
    19  H    4.605414   3.494903   4.515407   5.315562   5.308719
    20  H    3.963991   2.799201   4.126173   4.148134   4.883661
                    6          7          8          9         10
     6  C    0.000000
     7  C    2.652059   0.000000
     8  C    3.701284   4.073777   0.000000
     9  H    2.203485   4.194728   3.989107   0.000000
    10  H    2.263727   4.317531   2.748502   1.767479   0.000000
    11  H    2.170805   2.111037   4.564308   2.753982   3.707548
    12  H    3.862788   2.937284   2.073173   4.341655   3.874158
    13  C    3.102213   1.327939   4.573143   5.056077   4.904321
    14  H    3.595154   1.087922   4.446758   4.793630   5.035746
    15  H    1.089897   2.806964   3.450826   3.067435   2.481498
    16  H    1.092654   3.286086   4.767677   2.511828   2.956080
    17  H    3.590956   4.633295   1.083143   3.667054   2.114265
    18  H    4.676797   4.695747   1.081924   5.068172   3.784892
    19  H    4.183128   2.104952   5.242195   6.103282   5.911844
    20  H    2.799951   2.112321   4.656769   4.956387   4.643492
                   11         12         13         14         15
    11  H    0.000000
    12  H    3.709067   0.000000
    13  C    3.208432   3.750268   0.000000
    14  H    2.503227   2.836694   2.079145   0.000000
    15  H    3.062552   3.896808   2.837711   3.837782   0.000000
    16  H    2.473602   4.912102   3.593288   4.237258   1.774329
    17  H    4.839371   3.061659   5.067421   5.172561   3.308823
    18  H    5.474910   2.395211   5.059782   4.950144   4.300041
    19  H    4.104547   4.232948   1.082331   2.409482   3.860666
    20  H    3.558402   4.307794   1.083738   3.061764   2.276837
                   16         17         18         19         20
    16  H    0.000000
    17  H    4.559983   0.000000
    18  H    5.748694   1.838283   0.000000
    19  H    4.652349   5.847861   5.553083   0.000000
    20  H    3.150457   4.941156   5.194839   1.843332   0.000000
 Symmetry turned off by external request.
 Stoichiometry    C8H12
 Framework group  C1[X(C8H12)]
 Deg. of freedom    54
 Full point group                 C1      NOp   1
 Rotational constants (GHZ):           2.7893485           1.6985568           1.3163474
 Standard basis: def2TZVP (5D, 7F)
 The following finite field(s) will be applied:
 An electric field of             -0.0056 -0.0019  0.0046
   320 basis functions,   504 primitive gaussians,   360 cartesian basis functions
    30 alpha electrons       30 beta electrons
       nuclear repulsion energy       360.3403638465 Hartrees.
 NAtoms=   20 NActive=   20 NUniq=   20 SFac= 1.00D+00 NAtFMM=   60 NAOKFM=F Big=F
 Integral buffers will be    131072 words long.
 Raffenetti 2 integral format.
 Two-electron integral symmetry is turned off.
 One-electron integrals computed using PRISM.
   1 Symmetry operations used in ECPInt.
 ECPInt:  NShTT=    9316 NPrTT=   27240 LenC2=    9174 LenP2D=   21655.
 LDataN:  DoStor=T MaxTD1= 6 Len=  172
 NBasis=   320 RedAO= T EigKep=  3.41D-05  NBF=   320
 NBsUse=   320 1.00D-06 EigRej= -1.00D+00 NBFU=   320
 The nuclear repulsion energy is now       360.4499003618 hartrees.
 Initial guess from the checkpoint file:  "checkpoint.chk"
 B after Tr=     0.002745    0.004993    0.001268
         Rot=    0.999994   -0.001464    0.000479    0.003151 Ang=  -0.40 deg.
 Requested convergence on RMS density matrix=1.00D-08 within 128 cycles.
 Requested convergence on MAX density matrix=1.00D-06.
 Requested convergence on             energy=1.00D-06.
 No special actions if energy rises.
 SCF Done:  E(RB3LYP) =  -312.118428050     A.U. after    9 cycles
            NFock=  9  Conv=0.33D-08     -V/T= 2.0056
   1 Symmetry operations used in ECPInt.
 ECPInt:  NShTT=    9316 NPrTT=   27240 LenC2=    9174 LenP2D=   21655.
 LDataN:  DoStor=T MaxTD1= 7 Len=  274
 Calling FoFJK, ICntrl=      2127 FMM=F ISym2X=0 I1Cent= 0 IOpClX= 0 NMat=1 NMatS=1 NMatT=0.
 -------------------------------------------------------------------
 Center     Atomic                   Forces (Hartrees/Bohr)
 Number     Number              X              Y              Z
 -------------------------------------------------------------------
      1        6           0.000866852    0.000170392   -0.000048855
      2        6          -0.000890204    0.000101074    0.000174586
      3        6           0.000016165   -0.000280586   -0.000120738
      4        6          -0.000502616    0.000255298    0.000128636
      5        1          -0.000031463   -0.000041556    0.000074872
      6        6           0.000357735   -0.000061643   -0.000210689
      7        6           0.000076994   -0.000061304   -0.000151791
      8        6          -0.000025205    0.000019923    0.000032024
      9        1          -0.000011249   -0.000063382   -0.000106440
     10        1           0.000052266    0.000032082    0.000065653
     11        1          -0.000001764   -0.000004817    0.000082547
     12        1          -0.000005099    0.000004958   -0.000012734
     13        6           0.000018266    0.000008686    0.000007495
     14        1           0.000003242   -0.000031369   -0.000003983
     15        1           0.000011221   -0.000061196    0.000106153
     16        1           0.000058370    0.000001992   -0.000036788
     17        1           0.000011648    0.000003194   -0.000014284
     18        1           0.000011764   -0.000020815   -0.000018269
     19        1          -0.000050546    0.000017285    0.000052274
     20        1           0.000033623    0.000011782    0.000000330
 -------------------------------------------------------------------
 Cartesian Forces:  Max     0.000890204 RMS     0.000196778
 -----------------------------------------------------------------------------------------------
                       Internal Coordinate Forces (Hartree/Bohr or radian)
  Cent   Atom   N1       Length/X         N2         Alpha/Y        N3         Beta/Z          J
 -----------------------------------------------------------------------------------------------
      1  C 
      2  C        1   0.000020(     1)
      3  C        1   0.000065(     2)      2   0.000354(    20)
      4  C        1   0.000035(     3)      2  -0.000178(    21)      3   0.001272(    38)     0
      5  H        1  -0.000044(     4)      2  -0.000130(    22)      3  -0.000094(    39)     0
      6  C        2   0.000037(     5)      1  -0.000354(    23)      3   0.001226(    40)     0
      7  C        2  -0.000005(     6)      1  -0.000166(    24)      6  -0.000024(    41)     0
      8  C        3  -0.000002(     7)      1  -0.000021(    25)      2  -0.000008(    42)     0
      9  H        4   0.000010(     8)      1   0.000115(    26)      2   0.000336(    43)     0
     10  H        4  -0.000051(     9)      1  -0.000062(    27)      9   0.000123(    44)     0
     11  H        2   0.000023(    10)      1   0.000164(    28)      6   0.000010(    45)     0
     12  H        3  -0.000000(    11)      1   0.000002(    29)      8  -0.000027(    46)     0
     13  C        7   0.000017(    12)      2   0.000180(    30)      1  -0.000082(    47)     0
     14  H        7  -0.000030(    13)      2   0.000004(    31)     13  -0.000021(    48)     0
     15  H        6   0.000049(    14)      2   0.000081(    32)      1   0.000168(    49)     0
     16  H        6  -0.000064(    15)      2   0.000039(    33)     15  -0.000034(    50)     0
     17  H        8  -0.000005(    16)      3   0.000032(    34)      1   0.000011(    51)     0
     18  H        8   0.000016(    17)      3   0.000052(    35)     17  -0.000003(    52)     0
     19  H       13  -0.000007(    18)      7  -0.000013(    36)      2   0.000161(    53)     0
     20  H       13  -0.000015(    19)      7   0.000055(    37)     19   0.000031(    54)     0
 -----------------------------------------------------------------------------------------------
 Internal  Forces:  Max     0.001272165 RMS     0.000263950

 GradGradGradGradGradGradGradGradGradGradGradGradGradGradGradGradGradGrad
 Berny optimization.
 Search for a local minimum.
 Step number   3 out of a maximum of   64
 All quantities printed in internal units (Hartrees-Bohrs-Radians)
 Update second derivatives using D2CorN and points    1    2    3
 DE= -4.66D-07 DEPred=-6.32D-06 R= 7.37D-02
 Trust test= 7.37D-02 RLast= 2.10D-02 DXMaxT set to 5.00D-02
 ITU= -1  1  0
     Eigenvalues ---    0.02628   0.03314   0.03513   0.03863   0.05841
     Eigenvalues ---    0.07558   0.08120   0.08270   0.12164   0.13214
     Eigenvalues ---    0.14647   0.14976   0.15660   0.16849   0.17278
     Eigenvalues ---    0.18733   0.19534   0.21923   0.22186   0.23663
     Eigenvalues ---    0.24527   0.25113   0.26109   0.27830   0.28356
     Eigenvalues ---    0.29567   0.32582   0.33344   0.33718   0.34103
     Eigenvalues ---    0.34397   0.34508   0.34616   0.34667   0.34818
     Eigenvalues ---    0.35027   0.35040   0.35170   0.35568   0.35635
     Eigenvalues ---    0.35708   0.35748   0.38747   0.44687   0.44974
     Eigenvalues ---    0.47653   0.49709   0.52496   0.57678   0.60010
     Eigenvalues ---    0.60209   0.85509   1.47380   5.66167
 RFO step:  Lambda=-5.90317127D-07 EMin= 2.62755997D-02
 Quartic linear search produced a step of -0.48087.
 Variable       Old X    -DE/DX   Delta X   Delta X   Delta X     New X
                                 (Linear)    (Quad)   (Total)
    R2        2.99875   0.00002   0.00006   0.00013   0.00019   2.99894
    R3        2.83170   0.00006  -0.00001   0.00011   0.00009   2.83180
    R4        2.93023   0.00004  -0.00004   0.00006   0.00002   2.93025
    R5        2.06651  -0.00004  -0.00000  -0.00007  -0.00007   2.06644
    R6        2.91971   0.00004  -0.00003  -0.00005  -0.00008   2.91963
    R7        2.81752  -0.00000  -0.00001  -0.00001  -0.00002   2.81750
    R8        2.50733  -0.00000   0.00002  -0.00002  -0.00000   2.50733
    R9        2.06337   0.00001  -0.00001  -0.00001  -0.00002   2.06336
   R10        2.05618  -0.00005  -0.00000  -0.00008  -0.00008   2.05610
   R11        2.07252   0.00002  -0.00003   0.00004   0.00002   2.07254
   R12        2.05359  -0.00000   0.00003  -0.00003  -0.00000   2.05359
   R13        2.50944   0.00002  -0.00001   0.00003   0.00001   2.50946
   R14        2.05588  -0.00003  -0.00002  -0.00002  -0.00004   2.05583
   R15        2.05961   0.00005   0.00005   0.00003   0.00008   2.05969
   R16        2.06482  -0.00006  -0.00009  -0.00001  -0.00010   2.06472
   R17        2.04684  -0.00001  -0.00001  -0.00001  -0.00001   2.04683
   R18        2.04454   0.00002  -0.00001   0.00005   0.00004   2.04458
   R19        2.04531  -0.00001   0.00000  -0.00001  -0.00001   2.04530
   R20        2.04797  -0.00002  -0.00000  -0.00003  -0.00003   2.04794
    A3        2.00679   0.00035   0.00034   0.00054   0.00088   2.00767
    A4        1.52536  -0.00018  -0.00079  -0.00006  -0.00085   1.52451
    A5        1.96785  -0.00013   0.00003  -0.00039  -0.00036   1.96749
    A6        1.54106  -0.00035  -0.00087  -0.00003  -0.00090   1.54015
    A7        2.10268  -0.00017  -0.00001  -0.00036  -0.00037   2.10231
    A8        2.22493  -0.00002   0.00009  -0.00009   0.00000   2.22494
    A9        1.93824   0.00012   0.00070   0.00002   0.00072   1.93896
   A10        2.05109  -0.00006  -0.00019  -0.00024  -0.00043   2.05066
   A11        1.86213   0.00016   0.00063  -0.00001   0.00062   1.86275
   A12        1.99737   0.00000  -0.00002  -0.00001  -0.00003   1.99735
   A13        2.20476   0.00018   0.00022   0.00021   0.00044   2.20519
   A14        2.01131   0.00000  -0.00011  -0.00008  -0.00019   2.01112
   A15        1.94661   0.00008   0.00015  -0.00009   0.00006   1.94667
   A16        2.04770   0.00004   0.00017   0.00007   0.00024   2.04794
   A17        2.14309   0.00003  -0.00010   0.00017   0.00007   2.14316
   A18        2.11154   0.00005  -0.00002   0.00007   0.00006   2.11160
   A19        2.11814  -0.00001  -0.00005  -0.00008  -0.00013   2.11800
   A20        2.12878   0.00005   0.00020   0.00006   0.00026   2.12904
    D4        2.08391   0.00127  -0.00085   0.00043  -0.00042   2.08349
    D5       -2.17708  -0.00009  -0.00108   0.00015  -0.00093  -2.17801
    D6       -1.77196   0.00123   0.00594  -0.00032   0.00562  -1.76634
    D7        2.20563  -0.00002  -0.00029  -0.00011  -0.00040   2.20523
    D8        2.00303  -0.00001  -0.00080   0.00049  -0.00032   2.00271
    D9        1.67057   0.00034  -0.00484   0.00062  -0.00423   1.66634
   D10        2.19050   0.00012   0.00056  -0.00019   0.00037   2.19086
   D11       -1.91452   0.00001   0.00019  -0.00001   0.00018  -1.91434
   D12        3.11497  -0.00003   0.00080  -0.00076   0.00004   3.11501
   D13       -2.00239  -0.00008   0.00005  -0.00116  -0.00112  -2.00351
   D14       -3.14840  -0.00002   0.00135  -0.00017   0.00118  -3.14722
   D15        1.64758   0.00017  -0.00489   0.00020  -0.00470   1.64288
   D16        2.20591  -0.00003   0.00003  -0.00038  -0.00035   2.20556
   D17       -0.01177   0.00001   0.00027  -0.00018   0.00009  -0.01168
   D18        3.12381  -0.00000   0.00063  -0.00055   0.00007   3.12388
   D19       -3.15950   0.00016   0.00254  -0.00039   0.00215  -3.15735
   D20        3.17597   0.00003  -0.00211   0.00123  -0.00088   3.17509
         Item               Value     Threshold  Converged?
 Maximum Force            0.001272     0.000450     NO 
 RMS     Force            0.000264     0.000300     YES
 Maximum Displacement     0.005616     0.001800     NO 
 RMS     Displacement     0.001257     0.001200     NO 
 Predicted change in Energy=-3.069800D-06
 GradGradGradGradGradGradGradGradGradGradGradGradGradGradGradGradGradGrad

 ---------------------------------------------------------------------------------------------------
                            Z-MATRIX (ANGSTROMS AND DEGREES)
   CD    Cent   Atom    N1       Length/X        N2       Alpha/Y        N3        Beta/Z          J
 ---------------------------------------------------------------------------------------------------
      1      1  C 
      2      2  C        1   1.586972(     1)
      3      3  C        1   1.498522(     2)      2  115.031(    20)
      4      4  C        1   1.550623(     3)      2   87.348(    21)      3  119.375(    38)      0
      5      5  H        1   1.093512(     4)      2  112.729(    22)      3 -124.791(    39)      0
      6      6  C        2   1.545004(     5)      1   88.244(    23)      3 -101.204(    40)      0
      7      7  C        2   1.490955(     6)      1  120.453(    24)      6  126.350(    41)      0
      8      8  C        3   1.326820(     7)      1  127.479(    25)      2  114.747(    42)      0
      9      9  H        4   1.091882(     8)      1  111.094(    26)      2   95.474(    43)      0
     10     10  H        4   1.088043(     9)      1  117.494(    27)      9  125.527(    44)      0
     11     11  H        2   1.096739(    10)      1  106.728(    28)      6 -109.684(    45)      0
     12     12  H        3   1.086713(    11)      1  114.439(    29)      8  178.477(    46)      0
     13     13  C        7   1.327946(    12)      2  126.348(    30)      1 -114.792(    47)      0
     14     14  H        7   1.087901(    13)      2  115.229(    31)     13 -180.322(    48)      0
     15     15  H        6   1.089939(    14)      2  111.536(    32)      1   94.130(    49)      0
     16     16  H        6   1.092604(    15)      2  117.338(    33)     15  126.369(    50)      0
     17     17  H        8   1.083135(    16)      3  122.794(    34)      1   -0.669(    51)      0
     18     18  H        8   1.081943(    17)      3  120.986(    35)     17  178.985(    52)      0
     19     19  H       13   1.082325(    18)      7  121.353(    36)      2 -180.903(    53)      0
     20     20  H       13   1.083725(    19)      7  121.985(    37)     19  181.919(    54)      0
 ---------------------------------------------------------------------------------------------------
                         Z-Matrix orientation:                         
 ---------------------------------------------------------------------
 Center     Atomic      Atomic             Coordinates (Angstroms)
 Number     Number       Type             X           Y           Z
 ---------------------------------------------------------------------
      1          6           0        0.000000    0.000000    0.000000
      2          6           0        0.000000    0.000000    1.586972
      3          6           0        1.357780    0.000000   -0.634035
      4          6           0       -0.759802   -1.349810    0.071745
      5          1           0       -0.575484    0.828301   -0.422498
      6          6           0       -0.300054   -1.514848    1.539637
      7          6           0        1.163454    0.546153    2.342642
      8          6           0        1.902802   -0.956230   -1.374998
      9          1           0       -1.838250   -1.198384   -0.007152
     10          1           0       -0.470653   -2.127037   -0.632633
     11          1           0       -0.901365    0.539192    1.902643
     12          1           0        1.930223    0.909177   -0.470787
     13          6           0        1.984465   -0.141092    3.128184
     14          1           0        1.338287    1.612607    2.217592
     15          1           0        0.613751   -2.105812    1.600361
     16          1           0       -1.020207   -1.906531    2.261958
     17          1           0        1.395103   -1.886587   -1.598291
     18          1           0        2.887708   -0.833913   -1.805812
     19          1           0        2.816217    0.337058    3.629172
     20          1           0        1.876773   -1.209173    3.276726
 ---------------------------------------------------------------------
                    Distance matrix (angstroms):
                    1          2          3          4          5
     1  C    0.000000
     2  C    1.586972   0.000000
     3  C    1.498522   2.603159   0.000000
     4  C    1.550623   2.166840   2.608498   0.000000
     5  H    1.093512   2.248384   2.113845   2.241074   0.000000
     6  C    2.180660   1.545004   3.125385   1.547034   3.068579
     7  C    2.672056   1.490955   3.032599   3.528536   3.278645
     8  C    2.534887   3.648054   1.326820   3.055720   3.199017
     9  H    2.194388   2.712290   3.470405   1.091882   2.423745
    10  H    2.268486   3.110056   2.804899   1.088043   2.964653
    11  H    2.173301   1.096739   3.439361   2.634493   2.365600
    12  H    2.184950   2.964243   1.086713   3.554377   2.507477
    13  C    3.707229   2.516614   3.816666   4.281801   4.483348
    14  H    3.051103   2.188423   3.276074   4.216936   3.353763
    15  H    2.715196   2.193471   3.159201   2.189715   3.757028
    16  H    3.129239   2.265235   4.204338   2.274815   3.857899
    17  H    2.839024   3.956188   2.119055   2.778627   3.554761
    18  H    3.506455   4.532686   2.099798   4.134694   4.082917
    19  H    4.606037   3.495035   4.518361   5.318714   5.306692
    20  H    3.965010   2.799936   4.126197   4.152494   4.883556
                    6          7          8          9         10
     6  C    0.000000
     7  C    2.652244   0.000000
     8  C    3.695907   4.077333   0.000000
     9  H    2.204258   4.192275   3.990628   0.000000
    10  H    2.263325   4.320708   2.748669   1.767469   0.000000
    11  H    2.170813   2.111191   4.565367   2.746678   3.704311
    12  H    3.858995   2.938555   2.073185   4.342598   3.874145
    13  C    3.103178   1.327946   4.577092   5.055824   4.910737
    14  H    3.595102   1.087901   4.452449   4.789733   5.037955
    15  H    1.089939   2.808216   3.440342   3.069175   2.482468
    16  H    1.092604   3.284897   4.761775   2.513867   2.954537
    17  H    3.585853   4.637116   1.083135   3.668776   2.114558
    18  H    4.670924   4.699713   1.081943   5.069782   3.785116
    19  H    4.184120   2.104876   5.248680   6.102827   5.919313
    20  H    2.801694   2.112464   4.658668   4.958363   4.651448
                   11         12         13         14         15
    11  H    0.000000
    12  H    3.713213   0.000000
    13  C    3.208233   3.749480   0.000000
    14  H    2.503489   2.841229   2.078987   0.000000
    15  H    3.063168   3.887533   2.841342   3.838303   0.000000
    16  H    2.474832   4.909292   3.590986   4.236603   1.774047
    17  H    4.838875   3.061686   5.072836   5.177698   3.299992
    18  H    5.476781   2.395294   5.063612   4.957211   4.288428
    19  H    4.103923   4.233434   1.082325   2.409121   3.864524
    20  H    3.558502   4.305127   1.083725   3.061728   2.282407
                   16         17         18         19         20
    16  H    0.000000
    17  H    4.553641   0.000000
    18  H    5.741869   1.838221   0.000000
    19  H    4.649852   5.855812   5.560155   0.000000
    20  H    3.147786   4.945370   5.195671   1.843260   0.000000
 Symmetry turned off by external request.
 Stoichiometry    C8H12
 Framework group  C1[X(C8H12)]
 Deg. of freedom    54
 Full point group                 C1      NOp   1
 Rotational constants (GHZ):           2.7927481           1.6966020           1.3160198
 Standard basis: def2TZVP (5D, 7F)
 The following finite field(s) will be applied:
 An electric field of             -0.0056 -0.0019  0.0046
   320 basis functions,   504 primitive gaussians,   360 cartesian basis functions
    30 alpha electrons       30 beta electrons
       nuclear repulsion energy       360.3390595741 Hartrees.
 NAtoms=   20 NActive=   20 NUniq=   20 SFac= 1.00D+00 NAtFMM=   60 NAOKFM=F Big=F
 Integral buffers will be    131072 words long.
 Raffenetti 2 integral format.
 Two-electron integral symmetry is turned off.
 One-electron integrals computed using PRISM.
   1 Symmetry operations used in ECPInt.
 ECPInt:  NShTT=    9316 NPrTT=   27240 LenC2=    9174 LenP2D=   21655.
 LDataN:  DoStor=T MaxTD1= 6 Len=  172
 NBasis=   320 RedAO= T EigKep=  3.44D-05  NBF=   320
 NBsUse=   320 1.00D-06 EigRej= -1.00D+00 NBFU=   320
 The nuclear repulsion energy is now       360.4475044472 hartrees.
 Initial guess from the checkpoint file:  "checkpoint.chk"
 B after Tr=    -0.001970   -0.002017   -0.000814
         Rot=    0.999999    0.000669   -0.000339   -0.001418 Ang=   0.18 deg.
 Requested convergence on RMS density matrix=1.00D-08 within 128 cycles.
 Requested convergence on MAX density matrix=1.00D-06.
 Requested convergence on             energy=1.00D-06.
 No special actions if energy rises.
 SCF Done:  E(RB3LYP) =  -312.118430968     A.U. after    8 cycles
            NFock=  8  Conv=0.45D-08     -V/T= 2.0056
   1 Symmetry operations used in ECPInt.
 ECPInt:  NShTT=    9316 NPrTT=   27240 LenC2=    9174 LenP2D=   21655.
 LDataN:  DoStor=T MaxTD1= 7 Len=  274
 Calling FoFJK, ICntrl=      2127 FMM=F ISym2X=0 I1Cent= 0 IOpClX= 0 NMat=1 NMatS=1 NMatT=0.
 -------------------------------------------------------------------
 Center     Atomic                   Forces (Hartrees/Bohr)
 Number     Number              X              Y              Z
 -------------------------------------------------------------------
      1        6           0.000390238    0.000336118   -0.000007649
      2        6          -0.000356930   -0.000063072    0.000042050
      3        6          -0.000000569   -0.000250678    0.000006475
      4        6          -0.000015338   -0.000002625    0.000013682
      5        1          -0.000005652    0.000004790    0.000000621
      6        6          -0.000023031    0.000018889   -0.000014042
      7        6           0.000015155   -0.000014804   -0.000038876
      8        6          -0.000013777    0.000008365    0.000024861
      9        1           0.000010247   -0.000010143    0.000003450
     10        1           0.000011712   -0.000005871   -0.000003574
     11        1           0.000004337   -0.000007891   -0.000005222
     12        1          -0.000005260    0.000002112   -0.000006931
     13        6          -0.000014134    0.000007219    0.000015546
     14        1           0.000004511    0.000001570   -0.000005879
     15        1          -0.000000644   -0.000005322   -0.000008185
     16        1           0.000002223   -0.000007905    0.000009558
     17        1           0.000002949   -0.000003533   -0.000004496
     18        1          -0.000004839   -0.000003889   -0.000019476
     19        1          -0.000002413    0.000002634    0.000001364
     20        1           0.000001213   -0.000005963   -0.000003275
 -------------------------------------------------------------------
 Cartesian Forces:  Max     0.000390238 RMS     0.000088287
 -----------------------------------------------------------------------------------------------
                       Internal Coordinate Forces (Hartree/Bohr or radian)
  Cent   Atom   N1       Length/X         N2         Alpha/Y        N3         Beta/Z          J
 -----------------------------------------------------------------------------------------------
      1  C 
      2  C        1  -0.000007(     1)
      3  C        1  -0.000020(     2)      2   0.000086(    20)
      4  C        1   0.000014(     3)      2  -0.000037(    21)      3  -0.000075(    38)     0
      5  H        1   0.000006(     4)      2  -0.000007(    22)      3  -0.000004(    39)     0
      6  C        2  -0.000001(     5)      1  -0.000044(    23)      3  -0.000091(    40)     0
      7  C        2  -0.000016(     6)      1  -0.000044(    24)      6  -0.000037(    41)     0
[...]
 0027113,-0.00297369,0.00013533,0.00119587,-0.00013744,0.00059129,0.000
 20266,-0.00075784,-0.00063691,-0.00078545,0.59074469,0.00704651,0.0052
 9659,-0.00494806,-0.00171456,0.00024815,0.00395236,0.11314671,-0.33378
 798,-0.19648702,0.00094243,0.00045559,-0.00058759,-0.00218941,0.001544
 49,0.00085595,0.00065310,-0.00008167,0.00056159,-0.00012018,-0.0006124
 1,0.00026013,0.02471385,0.65541564,0.01161085,-0.01049138,-0.00371858,
 0.00043637,-0.00026756,0.00026906,0.11833023,-0.19965595,-0.20789883,0
 .00018737,-0.00061927,-0.00016380,0.00038534,0.00071368,-0.00037551,-0
 .00019349,0.00003800,0.00005656,0.00029042,0.00010097,0.00001736,-0.22
 488212,0.26101841,0.35202753,-0.01355704,0.00289951,0.00045657,-0.0000
 2178,0.00014765,0.00039571,0.00002373,-0.00281322,-0.00129887,-0.29893
 113,0.03833582,-0.01614555,0.00153136,0.00001610,0.00057121,-0.0057892
 4,0.00191561,-0.00017806,0.00017964,-0.00029273,-0.00034792,0.00008311
 ,-0.00010100,-0.00008048,0.32352976,-0.02938926,0.00365906,-0.00036737
 ,0.00013761,-0.00075096,0.00021574,-0.00100387,-0.00464939,-0.00247801
 ,0.03930106,-0.05123283,-0.00165931,0.00051584,0.00190776,0.00080547,0
 .00876524,-0.00275543,0.00105439,0.00029812,-0.00003861,-0.00013953,0.
 00016357,-0.00011362,-0.00033242,-0.04066455,0.05507251,0.00731159,-0.
 00153566,-0.00064751,0.00042426,0.00093455,-0.00025508,0.00112490,0.00
 151753,-0.00008558,-0.01581397,-0.00123421,-0.04750076,-0.00038572,-0.
 00057395,0.00074961,-0.03146106,0.00595379,-0.00216678,0.00011819,-0.0
 0034764,-0.00011380,0.00017979,0.00007136,-0.00010315,0.01850898,-0.00
 168846,0.05054654,0.00554303,-0.00824358,-0.01032317,-0.00228942,-0.00
 193722,-0.00277981,0.00054646,0.00110676,0.00079955,-0.06848353,0.0550
 4231,0.05034227,-0.00040543,-0.00084870,-0.00016957,0.00106128,-0.0070
 8641,-0.00594138,0.00063327,-0.00066930,-0.00067127,-0.00093600,-0.001
 04593,-0.00012965,-0.00872343,0.02298402,0.02081186,0.07364895,0.00992
 572,-0.01400072,-0.01414050,-0.00246001,-0.00213329,-0.00083710,0.0024
 7104,0.00170178,-0.00053030,0.05406635,-0.18572407,-0.12080784,-0.0014
 3184,-0.00223457,-0.00100656,-0.00511536,0.00660431,0.00450645,0.00108
 686,0.00074476,-0.00073054,0.00000671,-0.00003834,0.00004929,0.0016247
 6,-0.00253916,-0.00233645,-0.05931058,0.19522866,-0.00645303,0.0031568
 9,0.00341265,-0.00264884,-0.00070879,-0.00323171,0.00096363,-0.0012964
 4,-0.00009051,0.04935079,-0.12080372,-0.15811547,0.00048525,0.00099394
 ,-0.00019780,0.00955526,-0.01825750,-0.01282048,0.00050448,-0.00127857
 ,0.00043466,0.00049159,0.00036893,-0.00031299,-0.00021349,0.00225248,0
 .00237264,-0.05291161,0.13515066,0.16841055,-0.00307386,0.00178551,0.0
 0154721,-0.21314799,0.09916383,0.05830422,0.00098941,-0.00018495,0.001
 13206,-0.00009448,-0.00015144,0.00014431,0.00126670,-0.00058647,-0.000
 44484,0.00467727,-0.00346697,-0.00190089,-0.02570444,0.01415562,0.0036
 9444,0.00003087,-0.00019485,-0.00002634,0.00018429,-0.00000834,0.00003
 368,0.00004610,0.00019454,0.00024000,0.23366802,-0.00402349,0.00257589
 ,0.00359331,0.09610561,-0.10584563,-0.03854792,-0.00016500,0.00018664,
 0.00109262,0.00016423,0.00058914,0.00125298,-0.00031669,0.00117796,-0.
 00064076,0.02631703,-0.01900791,-0.00783139,-0.00913236,0.00713451,0.0
 0389420,-0.00025157,0.00008916,0.00001228,-0.00039988,0.00000687,-0.00
 056576,-0.00028286,0.00003554,-0.00001872,-0.10620238,0.11620442,0.026
 35698,-0.01343158,-0.01630358,0.05694376,-0.03723739,-0.05710490,-0.00
 292638,-0.00225820,-0.00517897,-0.00004892,0.00091925,-0.00007924,0.00
 074081,0.00086263,0.00229016,-0.00395060,0.00379778,0.00149138,-0.0185
 1747,0.00847123,0.00335063,0.00149781,0.00028150,-0.00032444,-0.000375
 12,-0.00052789,-0.00009819,-0.00016979,0.00021825,-0.00001699,-0.05945
 977,0.03996346,0.07222077,-0.01455010,-0.02533076,-0.00270317,0.000670
 86,-0.00017369,-0.00014412,-0.12914154,-0.12312195,-0.01698980,-0.0036
 8776,0.00283430,0.00170347,0.00083181,0.00059829,-0.00060716,0.0000608
 6,0.00003083,-0.00026032,-0.00005519,-0.00029343,0.00012696,0.01008959
 ,0.01232624,0.00435123,-0.00069610,-0.00121047,0.00041624,0.00025158,0
 .00004751,-0.00019598,-0.00004139,0.00005952,-0.00000530,0.13441217,0.
 00054452,0.00187606,-0.00013391,-0.00028942,0.00031367,-0.00027259,-0.
 11924451,-0.24049291,-0.03823085,0.00025660,0.00112478,-0.00090642,-0.
 00095026,0.00046324,0.00041923,0.00010740,0.00010563,-0.00011645,-0.00
 027295,-0.00021970,-0.00021334,-0.01408472,-0.01928802,-0.00577672,0.0
 0000456,-0.00013324,0.00011925,0.00016134,0.00011322,-0.00003986,0.000
 05463,0.00001558,0.00014773,0.13146562,0.25594002,0.00790764,0.0111403
 8,0.00262200,-0.00109886,0.00012210,0.00140714,-0.01533754,-0.03654074
 ,-0.05064664,0.00310063,-0.00081302,0.00006039,0.00014919,-0.00036545,
 0.00033577,-0.00020237,-0.00022852,0.00044361,0.00029460,0.00004442,-0
 .00031592,-0.00843463,-0.01876866,0.00139353,0.00051527,0.00087556,-0.
 00022606,0.00000821,-0.00006054,0.00015396,-0.00009451,-0.00008679,0.0
 0009373,0.01134588,0.04808895,0.04403678,-0.00221288,-0.00001581,0.004
 27994,-0.01807117,0.01110068,-0.02550465,-0.00063701,-0.00032519,0.000
 69511,-0.00009307,0.00031562,-0.00042186,-0.00008885,-0.00014365,-0.00
 084302,0.00059774,0.00137729,-0.00004661,-0.25264679,0.13614642,-0.187
 75852,0.00087268,-0.00014249,-0.00009095,0.00005983,0.00000443,-0.0001
 2346,-0.00018063,-0.00043676,0.00004021,-0.00159867,-0.00103743,-0.000
 58696,0.00031477,0.00042735,-0.00027703,0.53433132,-0.00241646,-0.0003
 6208,-0.00298888,-0.00276201,0.01327607,-0.00404515,-0.00040894,-0.000
 34628,0.00000142,0.00006494,-0.00017438,-0.00043458,-0.00013553,-0.000
 09244,-0.00047186,-0.00007695,0.00132425,0.00008988,0.12949911,-0.2315
 2463,0.14159670,0.00004780,0.00021218,-0.00002192,0.00006090,-0.000051
 52,0.00010457,0.00004795,-0.00008954,0.00000412,-0.00340662,-0.0000257
 5,-0.00152584,0.00017373,-0.00006769,-0.00005915,-0.00886049,0.6701271
 7,-0.00034647,-0.00010177,0.00098731,-0.01726661,0.00787330,-0.0083170
 4,-0.00080233,-0.00001727,-0.00008796,-0.00022937,0.00038038,-0.000049
 09,-0.00003447,-0.00002492,-0.00033693,0.00130126,0.00047389,-0.000361
 87,-0.18447710,0.14470104,-0.22577111,0.00020572,0.00001868,-0.0000185
 7,-0.00002951,0.00006192,-0.00011477,-0.00003157,-0.00024656,0.0000520
 8,-0.00088230,-0.00116606,-0.00055920,0.00006191,-0.00009981,-0.000035
 64,0.32383371,-0.13467823,0.37999071,0.00027685,-0.00019204,-0.0007808
 4,-0.00185266,-0.02555193,0.00339461,-0.00005690,0.00016036,-0.0001185
 5,0.00002043,-0.00085380,-0.00039810,-0.00008961,0.00010266,-0.0001877
 9,-0.00247635,0.00116279,-0.00250479,-0.05873864,-0.04730322,-0.001663
 77,0.00004289,-0.00003327,-0.00000493,-0.00005764,0.00001703,-0.000057
 72,-0.00014664,0.00009745,-0.00041211,0.00085946,0.00078746,0.00083123
 ,0.00020558,0.00002431,0.00001790,0.00645468,0.02134114,-0.00516044,0.
 05523852,-0.00019750,0.00003727,-0.00006672,-0.00143301,-0.01022292,0.
 00179501,-0.00051358,-0.00036000,0.00007028,0.00012130,-0.00026557,-0.
 00025609,-0.00003818,-0.00002834,-0.00034196,-0.00144434,0.00201965,-0
 .00000986,-0.04260162,-0.30955255,0.03189447,0.00028117,0.00020570,-0.
 00004616,-0.00001955,0.00006266,-0.00005673,-0.00009847,-0.00004173,-0
 .00017685,-0.00075705,0.00046007,-0.00009441,0.00034120,0.00032450,-0.
 00017951,-0.00374232,-0.01585362,0.00245523,0.04836955,0.33196292,0.00
 095740,0.00074819,0.00060948,-0.00298165,-0.01652342,0.00393893,-0.000
 04492,0.00002473,-0.00009813,0.00010959,0.00003319,0.00039041,-0.00010
 385,0.00004198,-0.00013712,-0.00324879,-0.00022486,0.00028849,-0.00242
 009,0.02942169,-0.05032903,0.00015851,0.00003611,-0.00005524,0.0000403
 0,0.00006030,-0.00001902,0.00002945,0.00009134,-0.00014090,-0.00026763
 ,0.00037166,0.00039849,0.00024387,-0.00019568,-0.00052694,0.00080533,0
 .02205836,0.00216989,0.01016433,-0.03708201,0.04304320,-0.00045750,0.0
 0004095,-0.00041201,0.00744917,-0.00234920,0.00123171,-0.00021935,0.00
 003560,0.00045196,-0.00961823,0.00482241,-0.00154195,0.00006678,0.0001
 6519,-0.00013248,-0.23527085,0.11989600,-0.00762315,-0.00008348,-0.000
 03419,-0.00087469,0.00003585,-0.00033701,0.00011916,0.00075446,0.00047
 334,-0.00207293,0.00106421,-0.00048671,0.00054439,0.00059286,-0.001805
 89,-0.00033153,0.00006293,-0.00003833,0.00004786,-0.00017501,-0.000032
 70,-0.00053987,0.00021261,0.00016961,0.00019348,0.25309809,-0.00039718
 ,0.00008456,-0.00045160,0.02731674,-0.01780430,-0.00014266,0.00025430,
 -0.00019884,0.00003924,-0.00315191,0.00187424,-0.00044319,-0.00026535,
 0.00014688,0.00009267,0.11895133,-0.12343442,0.01001770,0.00130464,0.0
 0247856,0.00039298,-0.00031197,0.00035705,0.00012186,-0.00081044,0.000
 17186,-0.00107456,0.00008556,0.00084208,0.00051550,-0.00141917,-0.0056
 5307,0.00144810,-0.00002465,-0.00001767,0.00000033,-0.00039337,-0.0001
 1895,-0.00015422,0.00001740,0.00021982,0.00023342,-0.13043711,0.133198
 82,0.00010375,-0.00082081,-0.00033743,0.00620916,-0.00387063,-0.000216
 39,-0.00006010,0.00056067,0.00022936,-0.02750879,0.01598217,-0.0026659
 2,0.00033918,-0.00008346,0.00007123,-0.00693981,0.00937461,-0.04631232
 ,-0.00013982,0.00072503,0.00054675,0.00025414,-0.00011466,-0.00009459,
 -0.00129028,0.00220208,-0.00532004,0.00014220,-0.00100214,0.00247347,-
 0.00070932,-0.00172193,-0.00010193,0.00010501,-0.00003780,-0.00009371,
 0.00014974,-0.00068783,-0.00006310,0.00003159,0.00019938,0.00011829,0.
 01208449,-0.00861955,0.05142528,0.00109062,-0.00011948,-0.00162961,-0.
 00390860,0.00248794,0.00231557,0.00023868,0.00045469,-0.00008568,0.008
 56893,0.00433552,-0.00700243,0.00005126,0.00041566,0.00026942,-0.16514
 406,-0.05976499,0.11197733,0.00014728,-0.00087674,0.00036433,0.0000622
 7,-0.00015192,0.00000667,0.00134660,-0.00046380,0.00102879,0.00002562,
 -0.00001766,-0.00069970,0.00119968,0.00004044,-0.00036664,0.00009333,-
 0.00002049,0.00000477,0.00014709,-0.00035825,-0.00018214,-0.00021199,-
 0.00015836,-0.00026837,-0.01738879,-0.01016271,0.01796228,0.17390125,-
 0.00010563,-0.00460692,0.00264031,-0.01891438,-0.00461551,0.01838644,0
 .00088546,-0.00015415,-0.00007461,0.00223370,-0.00208066,0.00025312,-0
 .00016600,-0.00030672,0.00139678,-0.05942057,-0.07725011,0.05461516,0.
 00106262,-0.00182583,0.00169476,-0.00030558,0.00030391,0.00001333,0.00
 019255,0.00064320,0.00065220,-0.00012241,-0.00010851,-0.00063508,0.000
 55143,0.00193466,-0.00069568,0.00003824,0.00000016,-0.00006181,-0.0002
 9275,0.00027755,-0.00025534,-0.00033908,-0.00044029,-0.00073464,0.0108
 5791,0.00713901,-0.01186254,0.06411612,0.08085122,-0.00140552,0.002484
 16,-0.00331597,-0.00593562,0.00035181,0.00258968,-0.00034292,0.0003825
 1,0.00038011,0.01994997,0.00709251,-0.01141287,0.00075661,0.00106310,-
 0.00023657,0.11223355,0.05448312,-0.15725111,-0.00020469,-0.00092205,0
 .00029806,0.00008234,-0.00010784,-0.00005419,-0.00042332,-0.00061572,0
 .00250939,-0.00023147,0.00106479,-0.00237074,-0.00012312,0.00106422,0.
 00064629,0.00021520,-0.00001792,0.00005222,0.00013190,0.00016622,0.000
 16685,0.00003317,-0.00020340,-0.00035142,-0.00074451,-0.00105569,0.001
 31476,-0.12388142,-0.06537034,0.16699827,-0.00103016,0.00124752,-0.002
 57564,0.00052336,-0.00022445,-0.00022731,0.01081635,0.01016217,0.00288
 096,-0.00114980,0.00040797,0.00084570,-0.00028943,0.00001485,0.0002085
 6,0.00011803,-0.00008426,-0.00014562,0.00019474,0.00002841,0.00010555,
 -0.11765929,-0.11779186,-0.01961264,0.00015809,0.00006548,-0.00022386,
 -0.00178345,-0.00029912,0.00131320,0.00005379,0.00001874,-0.00020218,0
 .00153698,0.00033065,0.00507959,-0.00011309,0.00001581,-0.00000463,0.0
 0000077,-0.00004630,-0.00000908,0.00002259,0.00003079,-0.00011063,-0.0
 0004799,0.00000406,-0.00011318,0.11664690,-0.00085313,-0.00104610,0.00
 370205,-0.00040733,-0.00001768,0.00024283,-0.01261052,-0.01776687,-0.0
 0582444,-0.00027692,0.00015473,0.00045497,0.00049301,-0.00017422,-0.00
 033648,-0.00011624,0.00017010,-0.00008434,-0.00008367,0.00004120,-0.00
 015356,-0.11473694,-0.25338159,-0.05366563,-0.00003017,0.00038476,0.00
 015920,-0.00009257,0.00102463,0.00045125,0.00001867,-0.00002066,0.0001
 0994,0.00051612,0.00013400,-0.00608821,0.00012961,-0.00001866,-0.00002
 473,0.00002414,0.00010612,0.00008560,0.00005806,-0.00005852,-0.0000415
 3,-0.00000004,0.00002782,0.00006469,0.12826075,0.27092425,-0.00300475,
 0.00285672,-0.00451691,0.00081969,-0.00026053,-0.00011324,-0.00910658,
 -0.01666716,0.00219536,0.00002956,-0.00042862,-0.00082666,-0.00083893,
 0.00043464,0.00055367,0.00001669,-0.00006933,-0.00010742,0.00010054,-0
 .00014153,0.00018695,-0.01837198,-0.05296534,-0.05439473,-0.00018499,0
 .00019293,0.00023011,0.00117422,0.00041709,0.00007135,0.00005987,0.000
 09671,-0.00029005,0.00532471,-0.00578161,0.00626646,-0.00005783,0.0000
 7288,0.00007035,0.00003752,0.00003032,-0.00001813,-0.00004399,0.000083
 20,-0.00022650,-0.00007213,0.00006181,0.00006106,0.01884711,0.06250892
 ,0.04592097,0.00337274,-0.00139520,0.00440456,-0.00121324,0.00037139,0
 .00039133,-0.00786065,-0.00272687,0.00430397,0.00032091,0.00014064,-0.
 00007988,0.00071071,0.00002444,-0.00041068,0.00001225,0.00012991,0.000
 00360,-0.00016574,0.00001016,-0.00015834,-0.29007185,-0.03503942,0.109
 31719,-0.00007457,0.00004997,0.00007173,0.00015292,0.00014696,-0.00004
 880,-0.00006914,-0.00007997,0.00040081,-0.00032229,0.00156849,-0.00306
 201,0.00008007,-0.00001770,0.00000370,0.00001486,0.00002900,0.00002609
 ,-0.00000327,-0.00004229,-0.00000280,-0.00000424,-0.00000936,0.0000229
 2,-0.00800756,-0.00026783,0.00527123,0.30312425,-0.00188467,-0.0004400
 4,-0.00590137,0.00146577,-0.00045117,-0.00032359,0.02373350,0.00454127
 ,-0.01135086,-0.00052741,-0.00051122,-0.00012842,-0.00035004,0.0000333
 8,0.00037790,-0.00015095,-0.00002034,-0.00005667,0.00023277,0.00009092
 ,0.00018408,-0.03936729,-0.05692104,0.00880385,-0.00003356,0.00024446,
 0.00015364,0.00023278,0.00055179,0.00024779,0.00011474,0.00007964,-0.0
 0051979,0.00167734,-0.00020918,0.00302439,-0.00009132,0.00001312,-0.00
 000518,0.00001874,-0.00003291,-0.00002322,-0.00000033,0.00003086,-0.00
 006635,-0.00000161,0.00006005,0.00005265,-0.02215445,-0.00050991,0.009
 52126,0.03711131,0.05343602,0.00372777,-0.00644754,0.00793742,-0.00135
 506,0.00022435,0.00054366,0.01756982,0.00210224,-0.00399607,-0.0001520
 2,-0.00017189,0.00026930,0.00220929,-0.00022822,-0.00127365,0.00006123
 ,0.00007513,0.00010330,-0.00016322,0.00014346,-0.00018426,0.10772200,0
 .00668013,-0.08624305,-0.00003848,0.00009990,0.00007413,0.00007182,0.0
 0021109,-0.00004680,-0.00018334,-0.00006143,0.00034599,-0.00295720,0.0
 0299396,-0.00498037,-0.00003069,-0.00005434,-0.00007871,0.00000602,0.0
 0002142,0.00002993,-0.00001842,-0.00004128,0.00000137,0.00001827,0.000
 01422,-0.00002970,-0.00605241,-0.00157241,0.00496391,-0.12045562,-0.00
 398829,0.08262219,-0.00172845,-0.00018867,-0.00013495,0.00492588,0.001
 40337,-0.00667577,-0.00025191,-0.00002889,0.00022118,0.00023402,-0.000
 05003,-0.00040887,-0.00008092,-0.00008815,-0.00035354,0.00041242,0.000
 05784,0.00028200,-0.01225423,-0.01016507,-0.00937450,0.00009777,0.0000
 0907,-0.00001475,-0.00003473,0.00001965,0.00004180,-0.00009549,-0.0001
 4791,0.00000666,0.00062139,0.00034580,0.00056297,0.00005645,0.00003926
 ,0.00001276,-0.21350019,-0.09960339,-0.10941054,-0.00192654,0.00113656
 ,0.00410722,0.00002968,-0.00007664,0.00000769,-0.00005297,-0.00005118,
 0.00006131,-0.00002030,0.00000614,0.00000048,0.00001412,-0.00001489,0.
 00000479,0.22278877,0.00067284,0.00011021,-0.00000740,-0.00046823,-0.0
 0158776,0.00346956,0.00013189,0.00002930,-0.00010084,-0.00028616,0.000
 20109,0.00026482,0.00003547,0.00005009,0.00013810,0.00014960,-0.000046
 04,-0.00037278,0.01568152,0.01022447,0.01022536,-0.00006593,0.00000522
 ,0.00000259,-0.00001868,0.00005298,-0.00013971,0.00005695,0.00007668,0
 .00001088,0.00003929,0.00004543,-0.00016799,-0.00001792,-0.00000747,-0
 .00000909,-0.10279130,-0.11464856,-0.05760051,0.00100521,0.00104861,-0
 .00148519,-0.00018860,0.00046874,0.00024230,0.00004265,0.00007583,-0.0
 0000969,0.00001119,0.00000478,0.00001602,-0.00000381,0.00001634,-0.000
 00970,0.10701975,0.11291892,0.00118597,0.00033998,0.00041584,-0.006586
 83,0.00396021,0.00755122,0.00010709,-0.00004029,-0.00016978,-0.0000489
 0,-0.00007847,0.00030622,0.00008491,0.00004243,0.00015966,-0.00017949,
 0.00045399,0.00008849,-0.01567408,-0.00963160,-0.00595551,0.00005183,-
 0.00002311,-0.00003270,0.00005706,0.00002831,-0.00000777,0.00007055,0.
 00006254,-0.00005052,-0.00195595,-0.00061875,-0.00143732,-0.00003887,-
 0.00000936,-0.00008032,-0.10705922,-0.05397503,-0.10017073,0.00427217,
 -0.00136137,-0.00454457,0.00019902,-0.00007855,0.00002020,-0.00004993,
 -0.00004385,-0.00005675,0.00002155,0.00000803,0.00001548,-0.00000299,0
 .00000142,-0.00004360,0.12215685,0.05824937,0.10006871,0.00088411,0.00
 008049,0.00023592,-0.00189102,0.00136068,0.00405885,0.00012669,0.00005
 282,-0.00019016,-0.00003086,0.00014553,0.00012476,0.00000636,0.0000141
 8,0.00017278,-0.00080230,-0.00019046,0.00006709,0.00730076,0.01985846,
 -0.00341327,-0.00011253,0.00002396,0.00000052,0.00003480,-0.00005508,0
 .00006690,0.00007060,0.00003805,0.00008810,-0.00045987,-0.00014131,-0.
 00039373,-0.00009253,-0.00008404,0.00002265,-0.05354083,-0.03317235,-0
 .00600895,0.00223032,0.00060190,-0.00749119,-0.00017273,-0.00046799,-0
 .00062768,-0.00011397,-0.00021515,-0.00008118,0.00002948,-0.00003115,-
 0.00000045,-0.00001026,-0.00001044,0.00001547,0.00076522,-0.02100573,0
 .00338926,0.04577856,-0.00020651,-0.00009359,-0.00010825,-0.00089314,-
 0.00050323,-0.00246597,-0.00000544,-0.00008548,-0.00001390,-0.00016623
 ,0.00043746,0.00000212,-0.00004039,0.00001160,-0.00002965,0.00007142,0
 .00018747,-0.00055131,-0.00199652,-0.01550402,0.00314845,-0.00002159,0
 .00009100,0.00000276,-0.00001366,0.00005864,-0.00011295,0.00002034,-0.
 00001350,0.00006309,0.00029997,0.00001751,0.00023890,0.00006392,0.0000
 2503,-0.00003465,-0.03122853,-0.32185623,0.03841018,0.00114510,0.00035
 059,0.00306245,-0.00080901,0.00027331,-0.00035702,0.00020301,0.0000753
 0,0.00003288,0.00000206,0.00002182,0.00002164,0.00000018,-0.00000202,0
 .00000920,0.00037739,-0.00903885,0.00271410,0.03319764,0.34554720,-0.0
 0102370,0.00005699,-0.00019086,0.00431791,-0.00085572,-0.00449734,-0.0
 0009206,0.00001606,0.00027004,0.00051366,0.00004997,-0.00041236,-0.000
 01994,-0.00009360,-0.00011442,-0.00041135,0.00003359,0.00008531,0.0017
 6959,0.02039553,0.00276657,0.00010618,-0.00010287,0.00002634,0.0000609
 6,-0.00004037,0.00017609,-0.00009084,-0.00007297,0.00001357,0.00089221
 ,-0.00008194,0.00065739,0.00000744,0.00006322,0.00004003,-0.00713513,0
 .03484867,-0.04747244,-0.00749950,0.00340896,0.00523338,-0.00053653,-0
 .00088370,-0.00076876,0.00029061,0.00000575,0.00006266,-0.00002506,0.0
 0000386,-0.00004200,0.00000400,-0.00000325,-0.00001497,-0.00109279,-0.
 01271609,0.00392375,0.00996433,-0.04403208,0.04025803\\-0.00039023,-0.
 00033614,0.00000762,0.00035700,0.00006305,-0.00004208,0.00000050,0.000
 25070,-0.00000643,0.00001535,0.00000263,-0.00001372,0.00000566,-0.0000
 0479,-0.00000061,0.00002310,-0.00001892,0.00001398,-0.00001520,0.00001
 481,0.00003885,0.00001375,-0.00000840,-0.00002486,-0.00001023,0.000010
 14,-0.00000345,-0.00001173,0.00000590,0.00000361,-0.00000439,0.0000079
 3,0.00000525,0.00000528,-0.00000210,0.00000692,0.00001417,-0.00000727,
 -0.00001550,-0.00000450,-0.00000154,0.00000587,0.00000062,0.00000535,0
 .00000819,-0.00000227,0.00000789,-0.00000951,-0.00000294,0.00000353,0.
 00000450,0.00000488,0.00000390,0.00001946,0.00000242,-0.00000263,-0.00
 000137,-0.00000122,0.00000597,0.00000328\\\@


 THERE IS NO SUBJECT, HOWEVER COMPLEX,
 WHICH, IF STUDIED WITH PATIENCE AND INTELLIGIENCE
 WILL NOT BECOME
 MORE COMPLEX
                        QUOTED BY D. GORDON ROHMAN
 Job cpu time:       0 days  1 hours 48 minutes 44.6 seconds.
 Elapsed time:       0 days  0 hours  9 minutes  5.0 seconds.
 File lengths (MBytes):  RWF=    162 Int=      0 D2E=      0 Chk=     32 Scr=      1
 Normal termination of Gaussian 16 at Sat Jun 11 00:12:13 2022.
