 Entering Gaussian System, Link 0=g16
 Input=int_zmat_field_N25.gjf
 Output=int_zmat_field_N25.out
 Initial command:
 /software/gaussian/g16-a03/l1.exe "/local_scratch/11174455/Gau-8938.inp" -scrdir="/local_scratch/11174455/"
 Entering Link 1 = /software/gaussian/g16-a03/l1.exe PID=      8939.
  
 Copyright (c) 1988,1990,1992,1993,1995,1998,2003,2009,2016,
            Gaussian, Inc.  All Rights Reserved.
  
 This is part of the Gaussian(R) 16 program.  It is based on
 the Gaussian(R) 09 system (copyright 2009, Gaussian, Inc.),
 the Gaussian(R) 03 system (copyright 2003, Gaussian, Inc.),
 the Gaussian(R) 98 system (copyright 1998, Gaussian, Inc.),
 the Gaussian(R) 94 system (copyright 1995, Gaussian, Inc.),
 the Gaussian 92(TM) system (copyright 1992, Gaussian, Inc.),
 the Gaussian 90(TM) system (copyright 1990, Gaussian, Inc.),
 the Gaussian 88(TM) system (copyright 1988, Gaussian, Inc.),
 the Gaussian 86(TM) system (copyright 1986, Carnegie Mellon
 University), and the Gaussian 82(TM) system (copyright 1983,
 Carnegie Mellon University). Gaussian is a federally registered
 trademark of Gaussian, Inc.
  
 This software contains proprietary and confidential information,
 including trade secrets, belonging to Gaussian, Inc.
  
 This software is provided under written license and may be
 used, copied, transmitted, or stored only in accord with that
 written license.
  
 The following legend is applicable only to US Government
 contracts under FAR:
  
                    RESTRICTED RIGHTS LEGEND
  
 Use, reproduction and disclosure by the US Government is
 subject to restrictions as set forth in subparagraphs (a)
 and (c) of the Commercial Computer Software - Restricted
 Rights clause in FAR 52.227-19.
  
 Gaussian, Inc.
 340 Quinnipiac St., Bldg. 40, Wallingford CT 06492
  
  
 ---------------------------------------------------------------
 Warning -- This program may not be used in any manner that
 competes with the business of Gaussian, Inc. or will provide
 assistance to any competitor of Gaussian, Inc.  The licensee
 of this program is prohibited from giving any competitor of
 Gaussian, Inc. access to this program.  By using this program,
 the user acknowledges that Gaussian, Inc. is engaged in the
 business of creating and licensing software in the field of
 computational chemistry and represents and warrants to the
 licensee that it is not a competitor of Gaussian, Inc. and that
 it will not use this program in any manner prohibited above.
 ---------------------------------------------------------------
  

 Cite this work as:
 Gaussian 16, Revision A.03,
 M. J. Frisch, G. W. Trucks, H. B. Schlegel, G. E. Scuseria, 
 M. A. Robb, J. R. Cheeseman, G. Scalmani, V. Barone, 
 G. A. Petersson, H. Nakatsuji, X. Li, M. Caricato, A. V. Marenich, 
 J. Bloino, B. G. Janesko, R. Gomperts, B. Mennucci, H. P. Hratchian, 
 J. V. Ortiz, A. F. Izmaylov, J. L. Sonnenberg, D. Williams-Young, 
 F. Ding, F. Lipparini, F. Egidi, J. Goings, B. Peng, A. Petrone, 
 T. Henderson, D. Ranasinghe, V. G. Zakrzewski, J. Gao, N. Rega, 
 G. Zheng, W. Liang, M. Hada, M. Ehara, K. Toyota, R. Fukuda, 
 J. Hasegawa, M. Ishida, T. Nakajima, Y. Honda, O. Kitao, H. Nakai, 
 T. Vreven, K. Throssell, J. A. Montgomery, Jr., J. E. Peralta, 
 F. Ogliaro, M. J. Bearpark, J. J. Heyd, E. N. Brothers, K. N. Kudin, 
 V. N. Staroverov, T. A. Keith, R. Kobayashi, J. Normand, 
 K. Raghavachari, A. P. Rendell, J. C. Burant, S. S. Iyengar, 
 J. Tomasi, M. Cossi, J. M. Millam, M. Klene, C. Adamo, R. Cammi, 
 J. W. Ochterski, R. L. Martin, K. Morokuma, O. Farkas, 
 J. B. Foresman, and D. J. Fox, Gaussian, Inc., Wallingford CT, 2016.
 
 ******************************************
 Gaussian 16:  ES64L-G16RevA.03 25-Dec-2016
                10-Jun-2022 
 ******************************************
 %nprocshared=12
 Will use up to   12 processors via shared memory.
 %chk=checkpoint.chk
 %mem=12GB
 ----------------------------------------------------------------------
 # Opt=(Z-matrix, MaxStep=10) B3LYP/Def2TZVP Field=read NoSymm freq=nor
 aman pop=none
 ----------------------------------------------------------------------
 1/8=10,10=7,18=40,26=3,38=1/1,3;
 2/12=2,15=1,17=6,18=5,29=3,40=1/2;
 3/5=44,7=101,11=2,14=-6,25=1,30=1,71=1,74=-5/1,2,3;
 4//1;
 5/5=2,38=5/2;
 7/29=1,30=1/1,2,3,16;
 1/8=10,10=7,18=40,26=3/3(2);
 2/15=1,29=3/2;
 99//99;
 2/15=1,29=3/2;
 3/5=44,7=101,11=2,14=-2,25=1,30=1,71=1,74=-5/1,2,3;
 4/5=5,16=3,69=1/1;
 5/5=2,38=5/2;
 7/30=1/1,2,3,16;
 1/8=10,18=40,26=3/3(-5);
 2/15=1,29=3/2;
 99/9=1/99;
 ------------------
 int_zmat_initalOpt
 ------------------
 Symbolic Z-matrix:
 Charge =  0 Multiplicity = 1
 C
 C                    1    R2
 C                    1    R3       2    A3
 C                    1    R4       2    A4       3    D4       0
 H                    1    R5       2    A5       3    D5       0
 C                    2    R6       1    A6       3    D6       0
 C                    2    R7       1    A7       6    D7       0
 C                    3    R8       1    A8       2    D8       0
 H                    4    R9       1    A9       2    D9       0
 H                    4    R10      1    A10      9    D10      0
 H                    2    R11      1    A11      6    D11      0
 H                    3    R12      1    A12      8    D12      0
 C                    7    R13      2    A13      1    D13      0
 H                    7    R14      2    A14      13   D14      0
 H                    6    R15      2    A15      1    D15      0
 H                    6    R16      2    A16      15   D16      0
 H                    8    R17      3    A17      1    D17      0
 H                    8    R18      3    A18      17   D18      0
 H                    13   R19      7    A19      2    D19      0
 H                    13   R20      7    A20      19   D20      0
       Variables:
  R2                    1.5863                   
  R3                    1.49691                  
  R4                    1.55024                  
  R5                    1.0939                   
  R6                    1.54464                  
  R7                    1.49096                  
  R8                    1.32766                  
  R9                    1.09047                  
  R10                   1.08842                  
  R11                   1.09522                  
  R12                   1.08748                  
  R13                   1.32782                  
  R14                   1.08843                  
  R15                   1.09012                  
  R16                   1.08992                  
  R17                   1.08276                  
  R18                   1.08259                  
  R19                   1.08255                  
  R20                   1.08329                  
  A3                  114.90177                  
  A4                   87.29483                  
  A5                  112.83001                  
  A6                   88.33367                  
  A7                  120.45661                  
  A8                  127.63946                  
  A9                  111.09285                  
  A10                 117.70467                  
  A11                 106.75077                  
  A12                 114.39832                  
  A13                 126.32445                  
  A14                 115.22678                  
  A15                 111.71653                  
  A16                 117.19912                  
  A17                 122.62297                  
  A18                 120.97443                  
  A19                 121.35263                  
  A20                 122.02579                  
  D4                  119.34759                  
  D5                 -124.62847                  
  D6                 -101.21221                  
  D7                  126.56916                  
  D8                  114.65603                  
  D9                   95.39732                  
  D10                 125.5343                   
  D11                -109.63384                  
  D12                 179.23723                  
  D13                -115.23177                  
  D14                -178.92398                  
  D15                  94.33699                  
  D16                 126.48271                  
  D17                  -0.6604                   
  D18                 179.752                    
  D19                -178.97775                  
  D20                 179.73642                  
 

 GradGradGradGradGradGradGradGradGradGradGradGradGradGradGradGradGradGrad
 Berny optimization.
 Initialization pass.
                       ----------------------------
                       !    Initial Parameters    !
                       ! (Angstroms and Degrees)  !
 ----------------------                            ----------------------
 !      Name          Value   Derivative information (Atomic Units)     !
 ------------------------------------------------------------------------
 !       R2          1.5863   estimate D2E/DX2                          !
 !       R3          1.4969   estimate D2E/DX2                          !
 !       R4          1.5502   estimate D2E/DX2                          !
 !       R5          1.0939   estimate D2E/DX2                          !
 !       R6          1.5446   estimate D2E/DX2                          !
 !       R7          1.491    estimate D2E/DX2                          !
 !       R8          1.3277   estimate D2E/DX2                          !
 !       R9          1.0905   estimate D2E/DX2                          !
 !       R10         1.0884   estimate D2E/DX2                          !
 !       R11         1.0952   estimate D2E/DX2                          !
 !       R12         1.0875   estimate D2E/DX2                          !
 !       R13         1.3278   estimate D2E/DX2                          !
 !       R14         1.0884   estimate D2E/DX2                          !
 !       R15         1.0901   estimate D2E/DX2                          !
 !       R16         1.0899   estimate D2E/DX2                          !
 !       R17         1.0828   estimate D2E/DX2                          !
 !       R18         1.0826   estimate D2E/DX2                          !
 !       R19         1.0826   estimate D2E/DX2                          !
 !       R20         1.0833   estimate D2E/DX2                          !
 !       A3        114.9018   estimate D2E/DX2                          !
 !       A4         87.2948   estimate D2E/DX2                          !
 !       A5        112.83     estimate D2E/DX2                          !
 !       A6         88.3337   estimate D2E/DX2                          !
 !       A7        120.4566   estimate D2E/DX2                          !
 !       A8        127.6395   estimate D2E/DX2                          !
 !       A9        111.0929   estimate D2E/DX2                          !
 !       A10       117.7047   estimate D2E/DX2                          !
 !       A11       106.7508   estimate D2E/DX2                          !
 !       A12       114.3983   estimate D2E/DX2                          !
 !       A13       126.3244   estimate D2E/DX2                          !
 !       A14       115.2268   estimate D2E/DX2                          !
 !       A15       111.7165   estimate D2E/DX2                          !
 !       A16       117.1991   estimate D2E/DX2                          !
 !       A17       122.623    estimate D2E/DX2                          !
 !       A18       120.9744   estimate D2E/DX2                          !
 !       A19       121.3526   estimate D2E/DX2                          !
 !       A20       122.0258   estimate D2E/DX2                          !
 !       D4        119.3476   estimate D2E/DX2                          !
 !       D5       -124.6285   estimate D2E/DX2                          !
 !       D6       -101.2122   estimate D2E/DX2                          !
 !       D7        126.5692   estimate D2E/DX2                          !
 !       D8        114.656    estimate D2E/DX2                          !
 !       D9         95.3973   estimate D2E/DX2                          !
 !       D10       125.5343   estimate D2E/DX2                          !
 !       D11      -109.6338   estimate D2E/DX2                          !
 !       D12       179.2372   estimate D2E/DX2                          !
 !       D13      -115.2318   estimate D2E/DX2                          !
 !       D14      -178.924    estimate D2E/DX2                          !
 !       D15        94.337    estimate D2E/DX2                          !
 !       D16       126.4827   estimate D2E/DX2                          !
 !       D17        -0.6604   estimate D2E/DX2                          !
 !       D18       179.752    estimate D2E/DX2                          !
 !       D19      -178.9778   estimate D2E/DX2                          !
 !       D20       179.7364   estimate D2E/DX2                          !
 ------------------------------------------------------------------------
 Trust Radius=1.00D-01 FncErr=1.00D-07 GrdErr=1.00D-06 EigMax=2.50D+02 EigMin=1.00D-04
 Number of steps in this run=     64 maximum allowed number of steps=    108.
 GradGradGradGradGradGradGradGradGradGradGradGradGradGradGradGradGradGrad

 ---------------------------------------------------------------------------------------------------
                            Z-MATRIX (ANGSTROMS AND DEGREES)
   CD    Cent   Atom    N1       Length/X        N2       Alpha/Y        N3        Beta/Z          J
 ---------------------------------------------------------------------------------------------------
      1      1  C 
      2      2  C        1   1.586298(     1)
      3      3  C        1   1.496907(     2)      2  114.902(    20)
      4      4  C        1   1.550240(     3)      2   87.295(    21)      3  119.348(    38)      0
      5      5  H        1   1.093905(     4)      2  112.830(    22)      3 -124.628(    39)      0
      6      6  C        2   1.544640(     5)      1   88.334(    23)      3 -101.212(    40)      0
      7      7  C        2   1.490959(     6)      1  120.457(    24)      6  126.569(    41)      0
      8      8  C        3   1.327657(     7)      1  127.639(    25)      2  114.656(    42)      0
      9      9  H        4   1.090465(     8)      1  111.093(    26)      2   95.397(    43)      0
     10     10  H        4   1.088420(     9)      1  117.705(    27)      9  125.534(    44)      0
     11     11  H        2   1.095218(    10)      1  106.751(    28)      6 -109.634(    45)      0
     12     12  H        3   1.087484(    11)      1  114.398(    29)      8  179.237(    46)      0
     13     13  C        7   1.327817(    12)      2  126.324(    30)      1 -115.232(    47)      0
     14     14  H        7   1.088427(    13)      2  115.227(    31)     13 -178.924(    48)      0
     15     15  H        6   1.090122(    14)      2  111.717(    32)      1   94.337(    49)      0
     16     16  H        6   1.089923(    15)      2  117.199(    33)     15  126.483(    50)      0
     17     17  H        8   1.082759(    16)      3  122.623(    34)      1   -0.660(    51)      0
     18     18  H        8   1.082594(    17)      3  120.974(    35)     17  179.752(    52)      0
     19     19  H       13   1.082552(    18)      7  121.353(    36)      2 -178.978(    53)      0
     20     20  H       13   1.083286(    19)      7  122.026(    37)     19  179.736(    54)      0
 ---------------------------------------------------------------------------------------------------
                         Z-Matrix orientation:                         
 ---------------------------------------------------------------------
 Center     Atomic      Atomic             Coordinates (Angstroms)
 Number     Number       Type             X           Y           Z
 ---------------------------------------------------------------------
      1          6           0        0.000000    0.000000    0.000000
      2          6           0        0.000000    0.000000    1.586298
      3          6           0        1.357741    0.000000   -0.630293
      4          6           0       -0.758936   -1.349780    0.073166
      5          1           0       -0.572917    0.829609   -0.424433
      6          6           0       -0.300218   -1.514518    1.541381
      7          6           0        1.161405    0.550406    2.342044
      8          6           0        1.908479   -0.955480   -1.369496
      9          1           0       -1.836171   -1.198984   -0.003904
     10          1           0       -0.473193   -2.129741   -0.630162
     11          1           0       -0.900398    0.537726    1.901950
     12          1           0        1.934096    0.905494   -0.455602
     13          6           0        1.979641   -0.132715    3.133836
     14          1           0        1.322571    1.620973    2.229856
     15          1           0        0.611529   -2.108557    1.606206
     16          1           0       -1.022780   -1.900700    2.260200
     17          1           0        1.401867   -1.886060   -1.592501
     18          1           0        2.900133   -0.835210   -1.786830
     19          1           0        2.791790    0.353785    3.658859
     20          1           0        1.869078   -1.198708    3.291770
 ---------------------------------------------------------------------
                    Distance matrix (angstroms):
                    1          2          3          4          5
     1  C    0.000000
     2  C    1.586298   0.000000
     3  C    1.496907   2.599372   0.000000
     4  C    1.550240   2.165054   2.607121   0.000000
     5  H    1.093905   2.249339   2.111414   2.243199   0.000000
     6  C    2.181685   1.544640   3.123902   1.547003   3.071436
     7  C    2.671512   1.490959   3.029238   3.527921   3.277075
     8  C    2.535893   3.645812   1.327657   3.058079   3.199533
     9  H    2.192966   2.708843   3.468573   1.090465   2.426488
    10  H    2.270862   3.110048   2.808579   1.088420   2.968168
    11  H    2.171930   1.095218   3.435199   2.631946   2.367382
    12  H    2.183625   2.954657   1.087484   3.552222   2.508355
    13  C    3.709112   2.516240   3.817465   4.283544   4.483625
    14  H    3.057614   2.188816   3.287741   4.220113   3.356246
    15  H    2.720272   2.195535   3.163032   2.191832   3.762875
    16  H    3.125258   2.261168   4.199343   2.270736   3.855414
    17  H    2.838752   3.953127   2.117785   2.780488   3.555139
    18  H    3.507294   4.526184   2.100983   4.136805   4.085318
    19  H    4.615897   3.494963   4.536352   5.326067   5.312339
    20  H    3.970656   2.799820   4.132910   4.157968   4.887492
                    6          7          8          9         10
     6  C    0.000000
     7  C    2.653547   0.000000
     8  C    3.696494   4.074474   0.000000
     9  H    2.201504   4.189188   3.993312   0.000000
    10  H    2.263630   4.323090   2.756423   1.765281   0.000000
    11  H    2.168394   2.108287   4.563092   2.743011   3.702631
    12  H    3.851825   2.924032   2.073423   4.341402   3.877907
    13  C    3.105325   1.327817   4.578427   5.053984   4.916521
    14  H    3.597046   1.088427   4.465056   4.787431   5.047011
    15  H    1.090122   2.813166   3.444774   3.067737   2.485641
    16  H    1.089923   3.284095   4.760295   2.506028   2.951050
    17  H    3.585576   4.634095   1.082759   3.671594   2.121633
    18  H    4.666979   4.689425   1.082594   5.073828   3.793813
    19  H    4.187455   2.104951   5.270556   6.102864   5.934957
    20  H    2.805253   2.112388   4.667774   4.958865   4.662039
                   11         12         13         14         15
    11  H    0.000000
    12  H    3.705085   0.000000
    13  C    3.203382   3.736846   0.000000
    14  H    2.494502   2.845620   2.079504   0.000000
    15  H    3.062058   3.883908   2.847689   3.847585   0.000000
    16  H    2.467639   4.898307   3.592149   4.231284   1.772534
    17  H    4.835944   3.060814   5.074081   5.188061   3.302403
    18  H    5.471388   2.394880   5.055072   4.965411   4.286236
    19  H    4.093021   4.238964   1.082552   2.409651   3.876861
    20  H    3.552014   4.298220   1.083286   3.062178   2.291371
                   16         17         18         19         20
    16  H    0.000000
    17  H    4.552189   0.000000
    18  H    5.736110   1.840339   0.000000
    19  H    4.646492   5.875847   5.575032   0.000000
    20  H    3.149567   4.954477   5.194939   1.842929   0.000000
 Symmetry turned off by external request.
 Stoichiometry    C8H12
 Framework group  C1[X(C8H12)]
 Deg. of freedom    54
 Full point group                 C1      NOp   1
 Rotational constants (GHZ):           2.7935540           1.6963920           1.3157302
 Standard basis: def2TZVP (5D, 7F)
 The following finite field(s) will be applied:
 An electric field of             -0.0019 -0.0006  0.0015
   320 basis functions,   504 primitive gaussians,   360 cartesian basis functions
    30 alpha electrons       30 beta electrons
       nuclear repulsion energy       360.3732313882 Hartrees.
 NAtoms=   20 NActive=   20 NUniq=   20 SFac= 1.00D+00 NAtFMM=   60 NAOKFM=F Big=F
 Integral buffers will be    131072 words long.
 Raffenetti 2 integral format.
 Two-electron integral symmetry is turned off.
 One-electron integrals computed using PRISM.
   1 Symmetry operations used in ECPInt.
 ECPInt:  NShTT=    9316 NPrTT=   27240 LenC2=    9174 LenP2D=   21654.
 LDataN:  DoStor=T MaxTD1= 6 Len=  172
 NBasis=   320 RedAO= T EigKep=  3.42D-05  NBF=   320
 NBsUse=   320 1.00D-06 EigRej= -1.00D+00 NBFU=   320
 The nuclear repulsion energy is now       360.4099387494 hartrees.
 ExpMin= 9.52D-02 ExpMax= 1.36D+04 ExpMxC= 4.63D+02 IAcc=3 IRadAn=         5 AccDes= 0.00D+00
 Harris functional with IExCor=  402 and IRadAn=       5 diagonalized for initial guess.
 HarFok:  IExCor=  402 AccDes= 0.00D+00 IRadAn=         5 IDoV= 1 UseB2=F ITyADJ=14
 ICtDFT=  3500011 ScaDFX=  1.000000  1.000000  1.000000  1.000000
 FoFCou: FMM=F IPFlag=           0 FMFlag=      100000 FMFlg1=           0
         NFxFlg=           0 DoJE=T BraDBF=F KetDBF=T FulRan=T
         wScrn=  0.000000 ICntrl=       500 IOpCl=  0 I1Cent=   200000004 NGrid=           0
         NMat0=    1 NMatS0=      1 NMatT0=    0 NMatD0=    1 NMtDS0=    0 NMtDT0=    0
 Symmetry not used in FoFCou.
 Requested convergence on RMS density matrix=1.00D-08 within 128 cycles.
 Requested convergence on MAX density matrix=1.00D-06.
 Requested convergence on             energy=1.00D-06.
 No special actions if energy rises.
 Integral accuracy reduced to 1.0D-05 until final iterations.
 Initial convergence to 1.0D-05 achieved.  Increase integral accuracy.
 SCF Done:  E(RB3LYP) =  -312.116753765     A.U. after   13 cycles
            NFock= 13  Conv=0.86D-08     -V/T= 2.0056
   1 Symmetry operations used in ECPInt.
 ECPInt:  NShTT=    9316 NPrTT=   27240 LenC2=    9174 LenP2D=   21654.
 LDataN:  DoStor=T MaxTD1= 7 Len=  274
 Calling FoFJK, ICntrl=      2127 FMM=F ISym2X=0 I1Cent= 0 IOpClX= 0 NMat=1 NMatS=1 NMatT=0.
 -------------------------------------------------------------------
 Center     Atomic                   Forces (Hartrees/Bohr)
 Number     Number              X              Y              Z
 -------------------------------------------------------------------
      1        6          -0.000059957    0.000133298   -0.000024471
      2        6           0.000238906    0.000014671   -0.000190684
      3        6           0.000745014   -0.000212215   -0.000092432
      4        6           0.000127924   -0.000195236   -0.000097336
      5        1          -0.000076834   -0.000120550    0.000072129
      6        6           0.000325604    0.000137067   -0.000331507
      7        6          -0.000253839    0.000123955    0.000366325
      8        6          -0.000033490    0.000226432    0.000434351
      9        1          -0.000275271    0.000072401   -0.000035312
     10        1           0.000077897    0.000114115    0.000007685
     11        1          -0.000208625    0.000151460    0.000074830
     12        1          -0.000166185   -0.000074552   -0.000143028
     13        6          -0.000322857    0.000243170    0.000557796
     14        1           0.000139597   -0.000176190   -0.000191325
     15        1          -0.000007282    0.000072454   -0.000038282
     16        1          -0.000279327   -0.000204883    0.000347054
     17        1          -0.000010832   -0.000059841   -0.000168654
     18        1          -0.000271925   -0.000017422   -0.000033778
     19        1           0.000160569   -0.000084891   -0.000281714
     20        1           0.000150914   -0.000143243   -0.000231647
 -------------------------------------------------------------------
 Cartesian Forces:  Max     0.000745014 RMS     0.000218189
 -----------------------------------------------------------------------------------------------
                       Internal Coordinate Forces (Hartree/Bohr or radian)
  Cent   Atom   N1       Length/X         N2         Alpha/Y        N3         Beta/Z          J
 -----------------------------------------------------------------------------------------------
      1  C 
      2  C        1   0.000081(     1)
      3  C        1   0.000240(     2)      2   0.000118(    20)
      4  C        1   0.000036(     3)      2   0.000563(    21)      3   0.000057(    38)     0
      5  H        1  -0.000079(     4)      2  -0.000093(    22)      3  -0.000251(    39)     0
      6  C        2  -0.000011(     5)      1  -0.000094(    23)      3   0.000033(    40)     0
      7  C        2  -0.000000(     6)      1   0.000165(    24)      6  -0.000222(    41)     0
      8  C        3  -0.000368(     7)      1  -0.000406(    25)      2  -0.000103(    42)     0
      9  H        4   0.000284(     8)      1  -0.000071(    26)      2   0.000058(    43)     0
     10  H        4  -0.000066(     9)      1  -0.000247(    27)      9   0.000033(    44)     0
     11  H        2   0.000267(    10)      1  -0.000005(    28)      6  -0.000046(    45)     0
     12  H        3  -0.000173(    11)      1  -0.000043(    29)      8  -0.000285(    46)     0
     13  C        7   0.000012(    12)      2  -0.000007(    30)      1  -0.000074(    47)     0
     14  H        7  -0.000133(    13)      2   0.000008(    31)     13  -0.000490(    48)     0
     15  H        6  -0.000048(    14)      2  -0.000113(    32)      1  -0.000174(    49)     0
     16  H        6   0.000487(    15)      2   0.000052(    33)     15  -0.000100(    50)     0
     17  H        8   0.000091(    16)      3   0.000202(    34)      1  -0.000021(    51)     0
     18  H        8  -0.000238(    17)      3   0.000098(    35)     17  -0.000225(    52)     0
     19  H       13  -0.000054(    18)      7   0.000007(    36)      2  -0.000063(    53)     0
     20  H       13   0.000092(    19)      7  -0.000049(    37)     19   0.000515(    54)     0
 -----------------------------------------------------------------------------------------------
 Internal  Forces:  Max     0.000562541 RMS     0.000202972

 GradGradGradGradGradGradGradGradGradGradGradGradGradGradGradGradGradGrad
 Berny optimization.
 Search for a local minimum.
 Step number   1 out of a maximum of   64
 All quantities printed in internal units (Hartrees-Bohrs-Radians)
 Second derivative matrix not updated -- first step.
 ITU=  0
     Eigenvalues ---    0.02114   0.03090   0.03213   0.04445   0.05042
     Eigenvalues ---    0.07858   0.08456   0.08641   0.10483   0.13411
     Eigenvalues ---    0.15356   0.15568   0.15882   0.16510   0.17084
     Eigenvalues ---    0.19457   0.19752   0.20776   0.21897   0.22496
     Eigenvalues ---    0.23229   0.25261   0.25804   0.27942   0.28574
     Eigenvalues ---    0.30060   0.32704   0.33345   0.34202   0.34217
     Eigenvalues ---    0.34365   0.34759   0.34798   0.34821   0.34840
     Eigenvalues ---    0.34995   0.34996   0.35105   0.35600   0.35663
     Eigenvalues ---    0.35683   0.35688   0.39677   0.42987   0.45080
     Eigenvalues ---    0.47880   0.48577   0.52872   0.54493   0.60024
     Eigenvalues ---    0.60062   0.85918   1.47783   5.66348
 RFO step:  Lambda=-1.36615989D-05 EMin= 2.11446398D-02
 Linear search not attempted -- first point.
 Variable       Old X    -DE/DX   Delta X   Delta X   Delta X     New X
                                 (Linear)    (Quad)   (Total)
    R2        2.99767   0.00008   0.00000   0.00020   0.00020   2.99787
    R3        2.82874   0.00024   0.00000   0.00073   0.00073   2.82948
    R4        2.92953   0.00004   0.00000  -0.00013  -0.00013   2.92940
    R5        2.06718  -0.00008   0.00000  -0.00023  -0.00023   2.06695
    R6        2.91895  -0.00001   0.00000   0.00023   0.00023   2.91917
    R7        2.81750  -0.00000   0.00000  -0.00000  -0.00000   2.81750
    R8        2.50891  -0.00037   0.00000  -0.00061  -0.00061   2.50830
    R9        2.06068   0.00028   0.00000   0.00082   0.00082   2.06150
   R10        2.05682  -0.00007   0.00000  -0.00019  -0.00019   2.05663
   R11        2.06966   0.00027   0.00000   0.00078   0.00078   2.07044
   R12        2.05505  -0.00017   0.00000  -0.00049  -0.00049   2.05456
   R13        2.50921   0.00001   0.00000   0.00002   0.00002   2.50923
   R14        2.05683  -0.00013   0.00000  -0.00038  -0.00038   2.05645
   R15        2.06003  -0.00005   0.00000  -0.00014  -0.00014   2.05990
   R16        2.05966   0.00049   0.00000   0.00140   0.00140   2.06106
   R17        2.04612   0.00009   0.00000   0.00026   0.00026   2.04637
   R18        2.04581  -0.00024   0.00000  -0.00067  -0.00067   2.04514
   R19        2.04573  -0.00005   0.00000  -0.00015  -0.00015   2.04558
   R20        2.04711   0.00009   0.00000   0.00026   0.00026   2.04737
    A3        2.00541   0.00012   0.00000   0.00047   0.00047   2.00588
    A4        1.52358   0.00056   0.00000   0.00023   0.00023   1.52382
    A5        1.96926  -0.00009   0.00000  -0.00014  -0.00014   1.96911
    A6        1.54171  -0.00009   0.00000  -0.00082  -0.00082   1.54089
    A7        2.10236   0.00017   0.00000   0.00055   0.00055   2.10292
    A8        2.22773  -0.00041   0.00000  -0.00110  -0.00110   2.22662
    A9        1.93894  -0.00007   0.00000   0.00021   0.00021   1.93914
   A10        2.05433  -0.00025   0.00000  -0.00112  -0.00112   2.05321
   A11        1.86315  -0.00000   0.00000   0.00016   0.00016   1.86331
   A12        1.99663  -0.00004   0.00000   0.00040   0.00040   1.99703
   A13        2.20478  -0.00001   0.00000  -0.00001  -0.00001   2.20477
   A14        2.01109   0.00001   0.00000   0.00006   0.00006   2.01114
   A15        1.94982  -0.00011   0.00000  -0.00075  -0.00075   1.94907
   A16        2.04551   0.00005   0.00000   0.00046   0.00046   2.04597
   A17        2.14017   0.00020   0.00000   0.00067   0.00067   2.14084
   A18        2.11140   0.00010   0.00000  -0.00006  -0.00006   2.11134
   A19        2.11800   0.00001   0.00000   0.00014   0.00014   2.11814
   A20        2.12975  -0.00005   0.00000  -0.00020  -0.00020   2.12955
    D4        2.08301   0.00006   0.00000  -0.00065  -0.00065   2.08236
    D5       -2.17518  -0.00025   0.00000  -0.00163  -0.00163  -2.17680
    D6       -1.76649   0.00003   0.00000   0.00234   0.00234  -1.76415
    D7        2.20905  -0.00022   0.00000  -0.00124  -0.00124   2.20781
    D8        2.00113  -0.00010   0.00000  -0.00041  -0.00041   2.00072
    D9        1.66500   0.00006   0.00000  -0.00125  -0.00125   1.66375
   D10        2.19099   0.00003   0.00000   0.00008   0.00008   2.19107
   D11       -1.91347  -0.00005   0.00000  -0.00037  -0.00037  -1.91385
   D12        3.12828  -0.00029   0.00000  -0.00282  -0.00282   3.12546
   D13       -2.01117  -0.00007   0.00000   0.00286   0.00286  -2.00831
   D14       -3.12281  -0.00049   0.00000  -0.00615  -0.00615  -3.12896
   D15        1.64649  -0.00017   0.00000  -0.00223  -0.00223   1.64426
   D16        2.20754  -0.00010   0.00000  -0.00039  -0.00039   2.20715
   D17       -0.01153  -0.00002   0.00000   0.00019   0.00019  -0.01134
   D18        3.13726  -0.00023   0.00000  -0.00322  -0.00322   3.13405
   D19       -3.12375  -0.00006   0.00000  -0.00792  -0.00792  -3.13167
   D20        3.13699   0.00051   0.00000   0.00866   0.00866   3.14565
         Item               Value     Threshold  Converged?
 Maximum Force            0.000563     0.000450     NO 
 RMS     Force            0.000203     0.000300     YES
 Maximum Displacement     0.008659     0.001800     NO 
 RMS     Displacement     0.002063     0.001200     NO 
 Predicted change in Energy=-6.830799D-06
 GradGradGradGradGradGradGradGradGradGradGradGradGradGradGradGradGradGrad

 ---------------------------------------------------------------------------------------------------
                            Z-MATRIX (ANGSTROMS AND DEGREES)
   CD    Cent   Atom    N1       Length/X        N2       Alpha/Y        N3        Beta/Z          J
 ---------------------------------------------------------------------------------------------------
      1      1  C 
      2      2  C        1   1.586406(     1)
      3      3  C        1   1.497294(     2)      2  114.929(    20)
      4      4  C        1   1.550171(     3)      2   87.308(    21)      3  119.311(    38)      0
      5      5  H        1   1.093782(     4)      2  112.822(    22)      3 -124.722(    39)      0
      6      6  C        2   1.544759(     5)      1   88.286(    23)      3 -101.078(    40)      0
      7      7  C        2   1.490959(     6)      1  120.488(    24)      6  126.498(    41)      0
      8      8  C        3   1.327334(     7)      1  127.576(    25)      2  114.633(    42)      0
      9      9  H        4   1.090898(     8)      1  111.105(    26)      2   95.326(    43)      0
     10     10  H        4   1.088320(     9)      1  117.640(    27)      9  125.539(    44)      0
     11     11  H        2   1.095631(    10)      1  106.760(    28)      6 -109.655(    45)      0
     12     12  H        3   1.087224(    11)      1  114.421(    29)      8  179.076(    46)      0
     13     13  C        7   1.327827(    12)      2  126.324(    30)      1 -115.068(    47)      0
     14     14  H        7   1.088226(    13)      2  115.230(    31)     13 -179.276(    48)      0
     15     15  H        6   1.090051(    14)      2  111.674(    32)      1   94.209(    49)      0
     16     16  H        6   1.090663(    15)      2  117.226(    33)     15  126.461(    50)      0
     17     17  H        8   1.082894(    16)      3  122.661(    34)      1   -0.650(    51)      0
     18     18  H        8   1.082241(    17)      3  120.971(    35)     17  179.568(    52)      0
     19     19  H       13   1.082473(    18)      7  121.360(    36)      2 -179.431(    53)      0
     20     20  H       13   1.083423(    19)      7  122.014(    37)     19  180.233(    54)      0
 ---------------------------------------------------------------------------------------------------
                         Z-Matrix orientation:                         
 ---------------------------------------------------------------------
 Center     Atomic      Atomic             Coordinates (Angstroms)
 Number     Number       Type             X           Y           Z
 ---------------------------------------------------------------------
      1          6           0        0.000000    0.000000    0.000000
      2          6           0        0.000000    0.000000    1.586406
      3          6           0        1.357797    0.000000   -0.631093
      4          6           0       -0.758040   -1.350225    0.072801
      5          1           0       -0.574236    0.828632   -0.424244
      6          6           0       -0.296694   -1.515296    1.540214
      7          6           0        1.160422    0.551499    2.342863
      8          6           0        1.907009   -0.956240   -1.369867
      9          1           0       -1.835897   -1.200161   -0.003109
     10          1           0       -0.471656   -2.128659   -0.631802
     11          1           0       -0.901749    0.536135    1.902343
     12          1           0        1.933189    0.906405   -0.459600
     13          6           0        1.980840   -0.131498    3.132518
     14          1           0        1.322414    1.621509    2.228526
     15          1           0        0.616988   -2.106497    1.602491
     16          1           0       -1.017012   -1.904891    2.260563
     17          1           0        1.399944   -1.886889   -1.592212
     18          1           0        2.896926   -0.835865   -1.790366
     19          1           0        2.796445    0.354330    3.652620
     20          1           0        1.873299   -1.198411    3.287235
 ---------------------------------------------------------------------
                    Distance matrix (angstroms):
                    1          2          3          4          5
     1  C    0.000000
     2  C    1.586406   0.000000
     3  C    1.497294   2.600175   0.000000
     4  C    1.550171   2.165348   2.606787   0.000000
     5  H    1.093782   2.249242   2.112384   2.242377   0.000000
     6  C    2.180919   1.544759   3.122184   1.547058   3.070850
     7  C    2.672029   1.490959   3.031093   3.528488   3.277609
     8  C    2.535273   3.645630   1.327334   3.055977   3.199460
     9  H    2.193380   2.708775   3.469068   1.090898   2.425932
    10  H    2.269983   3.110320   2.806793   1.088320   2.966340
    11  H    2.172441   1.095631   3.436755   2.631773   2.367662
    12  H    2.184038   2.957182   1.087224   3.552259   2.508880
    13  C    3.708597   2.516244   3.817099   4.283530   4.483393
    14  H    3.056861   2.188696   3.287546   4.219791   3.356057
    15  H    2.717716   2.195054   3.158326   2.191483   3.760538
    16  H    3.126191   2.262170   4.198810   2.271789   3.856992
    17  H    2.838192   3.952695   2.117988   2.777980   3.554657
    18  H    3.506602   4.526968   2.100358   4.134577   4.084826
    19  H    4.613815   3.494982   4.532710   5.324939   5.311052
    20  H    3.968798   2.799689   4.129798   4.156871   4.886144
                    6          7          8          9         10
     6  C    0.000000
     7  C    2.653125   0.000000
     8  C    3.692887   4.076154   0.000000
     9  H    2.202340   4.189251   3.992101   0.000000
    10  H    2.263731   4.323836   2.752699   1.765933   0.000000
    11  H    2.169239   2.108753   4.563295   2.741916   3.702431
    12  H    3.851787   2.928639   2.073335   4.341891   3.876151
    13  C    3.104430   1.327827   4.577894   5.053878   4.916654
    14  H    3.596502   1.088226   4.464859   4.787164   5.046179
    15  H    1.090051   2.812190   3.438336   3.068556   2.485498
    16  H    1.090663   3.283572   4.757085   2.508272   2.951823
    17  H    3.581725   4.635507   1.082894   3.669811   2.117481
    18  H    4.664075   4.692953   1.082241   5.072141   3.789582
    19  H    4.186319   2.104973   5.266314   6.102409   5.933127
    20  H    2.803813   2.112396   4.663516   4.958276   4.660796
                   11         12         13         14         15
    11  H    0.000000
    12  H    3.708470   0.000000
    13  C    3.204432   3.739361   0.000000
    14  H    2.496264   2.847883   2.079365   0.000000
    15  H    3.062674   3.881003   2.846348   3.845461   0.000000
    16  H    2.469861   4.899628   3.590591   4.231954   1.773037
    17  H    4.835364   3.060988   5.073648   5.187764   3.296570
    18  H    5.472514   2.394834   5.056692   4.966816   4.280666
    19  H    4.095505   4.237965   1.082473   2.409679   3.874111
    20  H    3.553515   4.297977   1.083423   3.062072   2.289389
                   16         17         18         19         20
    16  H    0.000000
    17  H    4.548173   0.000000
    18  H    5.733389   1.839801   0.000000
    19  H    4.645897   5.872098   5.572501   0.000000
    20  H    3.147549   4.950462   5.192426   1.843017   0.000000
 Symmetry turned off by external request.
 Stoichiometry    C8H12
 Framework group  C1[X(C8H12)]
 Deg. of freedom    54
 Full point group                 C1      NOp   1
 Rotational constants (GHZ):           2.7953304           1.6960149           1.3162311
 Standard basis: def2TZVP (5D, 7F)
 The following finite field(s) will be applied:
 An electric field of             -0.0019 -0.0006  0.0015
   320 basis functions,   504 primitive gaussians,   360 cartesian basis functions
    30 alpha electrons       30 beta electrons
       nuclear repulsion energy       360.3923682363 Hartrees.
 NAtoms=   20 NActive=   20 NUniq=   20 SFac= 1.00D+00 NAtFMM=   60 NAOKFM=F Big=F
 Integral buffers will be    131072 words long.
 Raffenetti 2 integral format.
 Two-electron integral symmetry is turned off.
 One-electron integrals computed using PRISM.
   1 Symmetry operations used in ECPInt.
 ECPInt:  NShTT=    9316 NPrTT=   27240 LenC2=    9174 LenP2D=   21657.
 LDataN:  DoStor=T MaxTD1= 6 Len=  172
 NBasis=   320 RedAO= T EigKep=  3.43D-05  NBF=   320
 NBsUse=   320 1.00D-06 EigRej= -1.00D+00 NBFU=   320
 The nuclear repulsion energy is now       360.4288436183 hartrees.
 Initial guess from the checkpoint file:  "checkpoint.chk"
 B after Tr=    -0.000633   -0.001085   -0.000542
         Rot=    1.000000    0.000026   -0.000321   -0.000371 Ang=   0.06 deg.
 Requested convergence on RMS density matrix=1.00D-08 within 128 cycles.
 Requested convergence on MAX density matrix=1.00D-06.
 Requested convergence on             energy=1.00D-06.
 No special actions if energy rises.
 SCF Done:  E(RB3LYP) =  -312.116761901     A.U. after    8 cycles
            NFock=  8  Conv=0.34D-08     -V/T= 2.0056
   1 Symmetry operations used in ECPInt.
 ECPInt:  NShTT=    9316 NPrTT=   27240 LenC2=    9174 LenP2D=   21657.
 LDataN:  DoStor=T MaxTD1= 7 Len=  274
 Calling FoFJK, ICntrl=      2127 FMM=F ISym2X=0 I1Cent= 0 IOpClX= 0 NMat=1 NMatS=1 NMatT=0.
 -------------------------------------------------------------------
 Center     Atomic                   Forces (Hartrees/Bohr)
 Number     Number              X              Y              Z
 -------------------------------------------------------------------
      1        6          -0.000034335    0.000203489   -0.000002880
      2        6           0.000012020   -0.000072558   -0.000028734
      3        6           0.000140617   -0.000065607    0.000017171
      4        6           0.000069698   -0.000091316    0.000001135
      5        1           0.000023123    0.000003483    0.000012218
      6        6          -0.000152245    0.000031859    0.000023599
      7        6          -0.000021511   -0.000006134    0.000026947
      8        6          -0.000041778   -0.000020072    0.000119922
      9        1           0.000013238    0.000021635    0.000011508
     10        1          -0.000005619    0.000014703    0.000021548
     11        1          -0.000037551   -0.000016403   -0.000031788
     12        1          -0.000037575    0.000003270   -0.000041182
     13        6          -0.000129031    0.000042792    0.000193268
     14        1           0.000044607   -0.000008406   -0.000050297
     15        1           0.000007567    0.000029540   -0.000029554
     16        1           0.000007407   -0.000041173    0.000029900
     17        1           0.000030000    0.000015545   -0.000052530
     18        1           0.000000082   -0.000013086   -0.000060595
     19        1           0.000056577   -0.000018373   -0.000081182
     20        1           0.000054707   -0.000013187   -0.000078475
 -------------------------------------------------------------------
 Cartesian Forces:  Max     0.000203489 RMS     0.000061775
 -----------------------------------------------------------------------------------------------
                       Internal Coordinate Forces (Hartree/Bohr or radian)
  Cent   Atom   N1       Length/X         N2         Alpha/Y        N3         Beta/Z          J
 -----------------------------------------------------------------------------------------------
      1  C 
      2  C        1  -0.000026(     1)
      3  C        1   0.000090(     2)      2   0.000027(    20)
      4  C        1   0.000012(     3)      2  -0.000112(    21)      3  -0.000228(    38)     0
      5  H        1  -0.000014(     4)      2  -0.000015(    22)      3   0.000040(    39)     0
      6  C        2   0.000006(     5)      1   0.000028(    23)      3  -0.000296(    40)     0
      7  C        2   0.000008(     6)      1  -0.000102(    24)      6  -0.000078(    41)     0
      8  C        3   0.000004(     7)      1  -0.000032(    25)      2  -0.000048(    42)     0
      9  H        4  -0.000011(     8)      1  -0.000046(    26)      2  -0.000015(    43)     0
     10  H        4  -0.000026(     9)      1   0.000007(    27)      9   0.000010(    44)     0
     11  H        2   0.000014(    10)      1  -0.000077(    28)      6   0.000066(    45)     0
     12  H        3  -0.000024(    11)      1  -0.000016(    29)      8  -0.000094(    46)     0
     13  C        7   0.000003(    12)      2   0.000013(    30)      1  -0.000039(    47)     0
     14  H        7   0.000004(    13)      2   0.000010(    31)     13  -0.000126(    48)     0
     15  H        6  -0.000011(    14)      2  -0.000056(    32)      1  -0.000117(    49)     0
     16  H        6   0.000030(    15)      2   0.000057(    33)     15  -0.000058(    50)     0
     17  H        8  -0.000017(    16)      3   0.000096(    34)      1  -0.000013(    51)     0
     18  H        8   0.000022(    17)      3   0.000076(    35)     17  -0.000078(    52)     0
     19  H       13  -0.000005(    18)      7  -0.000004(    36)      2  -0.000008(    53)     0
     20  H       13  -0.000004(    19)      7  -0.000010(    37)     19   0.000167(    54)     0
 -----------------------------------------------------------------------------------------------
 Internal  Forces:  Max     0.000295834 RMS     0.000074538

 GradGradGradGradGradGradGradGradGradGradGradGradGradGradGradGradGradGrad
 Berny optimization.
 Search for a local minimum.
 Step number   2 out of a maximum of   64
 All quantities printed in internal units (Hartrees-Bohrs-Radians)
 Update second derivatives using D2CorN and points    1    2
 DE= -8.14D-06 DEPred=-6.83D-06 R= 1.19D+00
 TightC=F SS=  1.41D+00  RLast= 1.52D-02 DXNew= 1.6818D-01 4.5475D-02
 Trust test= 1.19D+00 RLast= 1.52D-02 DXMaxT set to 1.00D-01
 ITU=  1  0
     Eigenvalues ---    0.02255   0.02630   0.03185   0.04008   0.05017
     Eigenvalues ---    0.07834   0.08458   0.08641   0.10392   0.13398
     Eigenvalues ---    0.15351   0.15550   0.15881   0.16505   0.17094
     Eigenvalues ---    0.19439   0.19752   0.20778   0.21881   0.22396
     Eigenvalues ---    0.23228   0.25278   0.25797   0.27941   0.28579
     Eigenvalues ---    0.30054   0.32678   0.33345   0.34198   0.34213
     Eigenvalues ---    0.34364   0.34760   0.34791   0.34803   0.34841
     Eigenvalues ---    0.34993   0.34997   0.35101   0.35601   0.35664
     Eigenvalues ---    0.35688   0.35690   0.39663   0.42988   0.45089
     Eigenvalues ---    0.47879   0.48559   0.52872   0.54482   0.60024
     Eigenvalues ---    0.60064   0.85939   1.47784   5.66353
 RFO step:  Lambda=-1.46873027D-06 EMin= 2.25532021D-02
 Quartic linear search produced a step of  0.23650.
 Variable       Old X    -DE/DX   Delta X   Delta X   Delta X     New X
                                 (Linear)    (Quad)   (Total)
    R2        2.99787  -0.00003   0.00005  -0.00012  -0.00007   2.99780
    R3        2.82948   0.00009   0.00017   0.00018   0.00036   2.82983
    R4        2.92940   0.00001  -0.00003   0.00023   0.00020   2.92960
    R5        2.06695  -0.00001  -0.00005   0.00000  -0.00005   2.06690
    R6        2.91917   0.00001   0.00005  -0.00006  -0.00001   2.91916
    R7        2.81750   0.00001  -0.00000   0.00003   0.00003   2.81754
    R8        2.50830   0.00000  -0.00014   0.00015   0.00001   2.50830
    R9        2.06150  -0.00001   0.00019  -0.00023  -0.00003   2.06147
   R10        2.05663  -0.00003  -0.00004  -0.00005  -0.00010   2.05653
   R11        2.07044   0.00001   0.00018  -0.00013   0.00006   2.07050
   R12        2.05456  -0.00002  -0.00012   0.00003  -0.00009   2.05447
   R13        2.50923   0.00000   0.00000   0.00000   0.00001   2.50924
   R14        2.05645   0.00000  -0.00009   0.00010   0.00001   2.05646
   R15        2.05990  -0.00001  -0.00003  -0.00001  -0.00004   2.05985
   R16        2.06106   0.00003   0.00033  -0.00021   0.00012   2.06117
   R17        2.04637  -0.00002   0.00006  -0.00012  -0.00006   2.04632
   R18        2.04514   0.00002  -0.00016   0.00023   0.00007   2.04521
   R19        2.04558  -0.00000  -0.00004   0.00002  -0.00002   2.04556
   R20        2.04737  -0.00000   0.00006  -0.00007  -0.00001   2.04736
    A3        2.00588   0.00003   0.00011  -0.00017  -0.00006   2.00582
    A4        1.52382  -0.00011   0.00006   0.00014   0.00019   1.52401
    A5        1.96911  -0.00002  -0.00003  -0.00007  -0.00010   1.96901
    A6        1.54089   0.00003  -0.00019   0.00071   0.00052   1.54141
    A7        2.10292  -0.00010   0.00013  -0.00042  -0.00029   2.10263
    A8        2.22662  -0.00003  -0.00026   0.00016  -0.00010   2.22652
    A9        1.93914  -0.00005   0.00005  -0.00051  -0.00046   1.93869
   A10        2.05321   0.00001  -0.00026   0.00040   0.00014   2.05335
   A11        1.86331  -0.00008   0.00004  -0.00048  -0.00044   1.86287
   A12        1.99703  -0.00002   0.00009  -0.00011  -0.00001   1.99701
   A13        2.20477   0.00001  -0.00000   0.00001   0.00001   2.20478
   A14        2.01114   0.00001   0.00001   0.00003   0.00004   2.01119
   A15        1.94907  -0.00006  -0.00018  -0.00045  -0.00062   1.94845
   A16        2.04597   0.00006   0.00011   0.00040   0.00051   2.04648
   A17        2.14084   0.00010   0.00016   0.00016   0.00031   2.14115
   A18        2.11134   0.00008  -0.00002   0.00015   0.00014   2.11147
   A19        2.11814  -0.00000   0.00003  -0.00001   0.00002   2.11816
   A20        2.12955  -0.00001  -0.00005  -0.00001  -0.00006   2.12949
    D4        2.08236  -0.00023  -0.00015   0.00058   0.00043   2.08279
    D5       -2.17680   0.00004  -0.00038   0.00097   0.00058  -2.17622
    D6       -1.76415  -0.00030   0.00055  -0.00326  -0.00271  -1.76686
    D7        2.20781  -0.00008  -0.00029   0.00040   0.00011   2.20792
    D8        2.00072  -0.00005  -0.00010  -0.00007  -0.00017   2.00055
    D9        1.66375  -0.00001  -0.00030   0.00239   0.00210   1.66584
   D10        2.19107   0.00001   0.00002  -0.00025  -0.00023   2.19084
   D11       -1.91385   0.00007  -0.00009   0.00019   0.00011  -1.91374
   D12        3.12546  -0.00009  -0.00067  -0.00054  -0.00121   3.12425
   D13       -2.00831  -0.00004   0.00068  -0.00066   0.00002  -2.00830
   D14       -3.12896  -0.00013  -0.00145  -0.00059  -0.00204  -3.13101
   D15        1.64426  -0.00012  -0.00053   0.00211   0.00158   1.64584
   D16        2.20715  -0.00006  -0.00009  -0.00012  -0.00021   2.20694
   D17       -0.01134  -0.00001   0.00004   0.00005   0.00009  -0.01125
   D18        3.13405  -0.00008  -0.00076  -0.00076  -0.00152   3.13252
   D19       -3.13167  -0.00001  -0.00187  -0.00146  -0.00333  -3.13500
   D20        3.14565   0.00017   0.00205   0.00196   0.00400   3.14965
         Item               Value     Threshold  Converged?
 Maximum Force            0.000296     0.000450     YES
 RMS     Force            0.000075     0.000300     YES
 Maximum Displacement     0.004003     0.001800     NO 
 RMS     Displacement     0.000980     0.001200     YES
 Predicted change in Energy=-9.056709D-07
 GradGradGradGradGradGradGradGradGradGradGradGradGradGradGradGradGradGrad

 ---------------------------------------------------------------------------------------------------
                            Z-MATRIX (ANGSTROMS AND DEGREES)
   CD    Cent   Atom    N1       Length/X        N2       Alpha/Y        N3        Beta/Z          J
 ---------------------------------------------------------------------------------------------------
      1      1  C 
      2      2  C        1   1.586366(     1)
      3      3  C        1   1.497483(     2)      2  114.925(    20)
      4      4  C        1   1.550277(     3)      2   87.319(    21)      3  119.335(    38)      0
      5      5  H        1   1.093754(     4)      2  112.816(    22)      3 -124.688(    39)      0
      6      6  C        2   1.544754(     5)      1   88.316(    23)      3 -101.233(    40)      0
      7      7  C        2   1.490976(     6)      1  120.472(    24)      6  126.504(    41)      0
      8      8  C        3   1.327337(     7)      1  127.570(    25)      2  114.623(    42)      0
      9      9  H        4   1.090881(     8)      1  111.079(    26)      2   95.446(    43)      0
     10     10  H        4   1.088269(     9)      1  117.648(    27)      9  125.526(    44)      0
     11     11  H        2   1.095662(    10)      1  106.734(    28)      6 -109.649(    45)      0
     12     12  H        3   1.087177(    11)      1  114.420(    29)      8  179.006(    46)      0
     13     13  C        7   1.327831(    12)      2  126.325(    30)      1 -115.067(    47)      0
     14     14  H        7   1.088232(    13)      2  115.233(    31)     13 -179.393(    48)      0
     15     15  H        6   1.090028(    14)      2  111.638(    32)      1   94.300(    49)      0
     16     16  H        6   1.090726(    15)      2  117.255(    33)     15  126.448(    50)      0
     17     17  H        8   1.082864(    16)      3  122.679(    34)      1   -0.645(    51)      0
     18     18  H        8   1.082280(    17)      3  120.979(    35)     17  179.480(    52)      0
     19     19  H       13   1.082464(    18)      7  121.362(    36)      2 -179.622(    53)      0
     20     20  H       13   1.083417(    19)      7  122.011(    37)     19  180.462(    54)      0
 ---------------------------------------------------------------------------------------------------
                         Z-Matrix orientation:                         
 ---------------------------------------------------------------------
 Center     Atomic      Atomic             Coordinates (Angstroms)
 Number     Number       Type             X           Y           Z
 ---------------------------------------------------------------------
      1          6           0        0.000000    0.000000    0.000000
      2          6           0        0.000000    0.000000    1.586366
      3          6           0        1.358007    0.000000   -0.631086
      4          6           0       -0.758676   -1.350004    0.072508
      5          1           0       -0.573761    0.828981   -0.424130
      6          6           0       -0.300796   -1.514506    1.540977
      7          6           0        1.162060    0.548581    2.342464
      8          6           0        1.907223   -0.956390   -1.369668
      9          1           0       -1.836248   -1.199161   -0.005639
     10          1           0       -0.471465   -2.129115   -0.630931
     11          1           0       -0.900498    0.538565    1.901846
     12          1           0        1.932829    0.906917   -0.460688
     13          6           0        1.980927   -0.136440    3.131982
     14          1           0        1.328026    1.617804    2.226415
     15          1           0        0.611511   -2.107586    1.605098
     16          1           0       -1.023048   -1.902098    2.260565
     17          1           0        1.400402   -1.887119   -1.592086
     18          1           0        2.896646   -0.835698   -1.791339
     19          1           0        2.799771    0.346765    3.649414
     20          1           0        1.870995   -1.203156    3.286334
 ---------------------------------------------------------------------
                    Distance matrix (angstroms):
                    1          2          3          4          5
     1  C    0.000000
     2  C    1.586366   0.000000
     3  C    1.497483   2.600246   0.000000
     4  C    1.550277   2.165610   2.607280   0.000000
     5  H    1.093754   2.249112   2.112290   2.242503   0.000000
     6  C    2.181471   1.544754   3.124615   1.546971   3.070519
     7  C    2.671790   1.490976   3.030072   3.527968   3.278070
     8  C    2.535384   3.645589   1.327337   3.056440   3.199512
     9  H    2.193132   2.710032   3.468781   1.090881   2.425360
    10  H    2.270129   3.109954   2.807151   1.088269   2.967080
    11  H    2.172088   1.095662   3.436080   2.633113   2.366699
    12  H    2.184161   2.957830   1.087177   3.552773   2.508068
    13  C    3.708369   2.516270   3.816717   4.282353   4.483793
    14  H    3.055792   2.188745   3.283824   4.219186   3.356252
    15  H    2.718861   2.194588   3.162230   2.190931   3.761125
    16  H    3.126462   2.262554   4.201078   2.272069   3.855936
    17  H    2.838500   3.952835   2.118144   2.778666   3.555086
    18  H    3.506828   4.527454   2.100472   4.135192   4.084622
    19  H    4.612720   3.495015   4.530079   5.323141   5.311028
    20  H    3.968400   2.799661   4.130003   4.155168   4.886098
                    6          7          8          9         10
     6  C    0.000000
     7  C    2.653047   0.000000
     8  C    3.695768   4.074325   0.000000
     9  H    2.202062   4.190232   3.991628   0.000000
    10  H    2.263638   4.321983   2.753030   1.765910   0.000000
    11  H    2.169093   2.109120   4.563002   2.744781   3.703450
    12  H    3.854742   2.929189   2.073358   4.341495   3.876481
    13  C    3.104291   1.327831   4.576309   5.054193   4.913705
    14  H    3.596422   1.088232   4.460242   4.788527   5.044006
    15  H    1.090028   2.811056   3.442870   3.067774   2.484578
    16  H    1.090726   3.284393   4.760194   2.508206   2.952377
    17  H    3.584551   4.633587   1.082864   3.669605   2.118081
    18  H    4.667842   4.691838   1.082280   5.071599   3.789940
    19  H    4.186090   2.104982   5.261752   6.102620   5.928939
    20  H    2.803549   2.112360   4.662677   4.957898   4.657197
                   11         12         13         14         15
    11  H    0.000000
    12  H    3.707424   0.000000
    13  C    3.204914   3.741415   0.000000
    14  H    2.497283   2.844586   2.079351   0.000000
    15  H    3.062081   3.885947   2.844660   3.844211   0.000000
    16  H    2.469926   4.902346   3.591766   4.233017   1.773033
    17  H    4.835870   3.061075   5.071362   5.183693   3.300446
    18  H    5.472341   2.395054   5.056342   4.962115   4.286645
    19  H    4.096678   4.237723   1.082464   2.409668   3.871892
    20  H    3.554092   4.300744   1.083417   3.062035   2.287104
                   16         17         18         19         20
    16  H    0.000000
    17  H    4.551512   0.000000
    18  H    5.737520   1.839547   0.000000
    19  H    4.647605   5.867009   5.568609   0.000000
    20  H    3.149001   4.948560   5.193241   1.843016   0.000000
 Symmetry turned off by external request.
 Stoichiometry    C8H12
 Framework group  C1[X(C8H12)]
 Deg. of freedom    54
 Full point group                 C1      NOp   1
 Rotational constants (GHZ):           2.7931394           1.6969905           1.3162651
 Standard basis: def2TZVP (5D, 7F)
 The following finite field(s) will be applied:
 An electric field of             -0.0019 -0.0006  0.0015
   320 basis functions,   504 primitive gaussians,   360 cartesian basis functions
    30 alpha electrons       30 beta electrons
       nuclear repulsion energy       360.3834924990 Hartrees.
 NAtoms=   20 NActive=   20 NUniq=   20 SFac= 1.00D+00 NAtFMM=   60 NAOKFM=F Big=F
 Integral buffers will be    131072 words long.
 Raffenetti 2 integral format.
 Two-electron integral symmetry is turned off.
 One-electron integrals computed using PRISM.
   1 Symmetry operations used in ECPInt.
 ECPInt:  NShTT=    9316 NPrTT=   27240 LenC2=    9174 LenP2D=   21655.
 LDataN:  DoStor=T MaxTD1= 6 Len=  172
 NBasis=   320 RedAO= T EigKep=  3.42D-05  NBF=   320
 NBsUse=   320 1.00D-06 EigRej= -1.00D+00 NBFU=   320
 The nuclear repulsion energy is now       360.4200720998 hartrees.
 Initial guess from the checkpoint file:  "checkpoint.chk"
 B after Tr=     0.000646    0.000901    0.000108
         Rot=    1.000000   -0.000265    0.000021    0.000681 Ang=  -0.08 deg.
 Requested convergence on RMS density matrix=1.00D-08 within 128 cycles.
 Requested convergence on MAX density matrix=1.00D-06.
 Requested convergence on             energy=1.00D-06.
 No special actions if energy rises.
 SCF Done:  E(RB3LYP) =  -312.116762567     A.U. after    7 cycles
            NFock=  7  Conv=0.65D-08     -V/T= 2.0056
   1 Symmetry operations used in ECPInt.
 ECPInt:  NShTT=    9316 NPrTT=   27240 LenC2=    9174 LenP2D=   21655.
 LDataN:  DoStor=T MaxTD1= 7 Len=  274
 Calling FoFJK, ICntrl=      2127 FMM=F ISym2X=0 I1Cent= 0 IOpClX= 0 NMat=1 NMatS=1 NMatT=0.
 -------------------------------------------------------------------
 Center     Atomic                   Forces (Hartrees/Bohr)
 Number     Number              X              Y              Z
 -------------------------------------------------------------------
      1        6           0.000244643    0.000071353    0.000005926
      2        6          -0.000251309    0.000019098    0.000072366
      3        6          -0.000004458   -0.000116616   -0.000050710
      4        6          -0.000132346    0.000064539    0.000023186
      5        1          -0.000003648   -0.000014220    0.000018444
      6        6           0.000109243   -0.000007556   -0.000049351
      7        6           0.000026068   -0.000021687   -0.000043144
      8        6          -0.000009277    0.000020703    0.000029449
      9        1          -0.000012382   -0.000007869   -0.000029641
     10        1           0.000015913    0.000001141    0.000010588
     11        1           0.000002198    0.000006119    0.000021983
     12        1          -0.000004767    0.000007140   -0.000008447
     13        6          -0.000016168    0.000005536    0.000021490
     14        1          -0.000000733   -0.000006225   -0.000004148
     15        1           0.000013527   -0.000025780    0.000018744
     16        1           0.000018515    0.000012918   -0.000022214
     17        1          -0.000002296   -0.000006107   -0.000006047
     18        1           0.000002738   -0.000007083   -0.000004491
     19        1          -0.000003803    0.000003474    0.000000902
     20        1           0.000008341    0.000001122   -0.000004885
 -------------------------------------------------------------------
 Cartesian Forces:  Max     0.000251309 RMS     0.000057292
 -----------------------------------------------------------------------------------------------
                       Internal Coordinate Forces (Hartree/Bohr or radian)
  Cent   Atom   N1       Length/X         N2         Alpha/Y        N3         Beta/Z          J
 -----------------------------------------------------------------------------------------------
      1  C 
      2  C        1   0.000012(     1)
      3  C        1   0.000001(     2)      2   0.000127(    20)
      4  C        1   0.000013(     3)      2   0.000011(    21)      3   0.000368(    38)     0
      5  H        1  -0.000016(     4)      2  -0.000027(    22)      3  -0.000021(    39)     0
      6  C        2  -0.000006(     5)      1  -0.000143(    23)      3   0.000342(    40)     0
      7  C        2  -0.000011(     6)      1  -0.000054(    24)      6  -0.000028(    41)     0
      8  C        3  -0.000020(     7)      1  -0.000023(    25)      2  -0.000034(    42)     0
      9  H        4   0.000013(     8)      1   0.000015(    26)      2   0.000088(    43)     0
     10  H        4  -0.000003(     9)      1  -0.000016(    27)      9   0.000031(    44)     0
     11  H        2   0.000008(    10)      1   0.000043(    28)      6  -0.000013(    45)     0
     12  H        3   0.000002(    11)      1  -0.000004(    29)      8  -0.000022(    46)     0
     13  C        7  -0.000002(    12)      2   0.000030(    30)      1  -0.000036(    47)     0
     14  H        7  -0.000006(    13)      2  -0.000006(    31)     13  -0.000007(    48)     0
     15  H        6   0.000026(    14)      2   0.000027(    32)      1   0.000040(    49)     0
     16  H        6  -0.000032(    15)      2  -0.000003(    33)     15   0.000005(    50)     0
     17  H        8   0.000008(    16)      3   0.000007(    34)      1   0.000006(    51)     0
     18  H        8   0.000003(    17)      3   0.000017(    35)     17   0.000000(    52)     0
     19  H       13  -0.000001(    18)      7  -0.000008(    36)      2   0.000021(    53)     0
     20  H       13  -0.000003(    19)      7   0.000007(    37)     19   0.000015(    54)     0
 -----------------------------------------------------------------------------------------------
 Internal  Forces:  Max     0.000367905 RMS     0.000076528

 GradGradGradGradGradGradGradGradGradGradGradGradGradGradGradGradGradGrad
 Berny optimization.
 Search for a local minimum.
 Step number   3 out of a maximum of   64
 All quantities printed in internal units (Hartrees-Bohrs-Radians)
 Update second derivatives using D2CorN and points    1    2    3
 DE= -6.66D-07 DEPred=-9.06D-07 R= 7.35D-01
 Trust test= 7.35D-01 RLast= 7.20D-03 DXMaxT set to 1.00D-01
 ITU=  0  1  0
     Eigenvalues ---    0.02261   0.03174   0.03455   0.03763   0.05014
     Eigenvalues ---    0.07842   0.08459   0.08645   0.10359   0.13393
     Eigenvalues ---    0.15343   0.15551   0.15884   0.16505   0.17186
     Eigenvalues ---    0.19445   0.19757   0.20782   0.21837   0.22317
     Eigenvalues ---    0.23226   0.25285   0.25790   0.27945   0.28582
     Eigenvalues ---    0.30047   0.32667   0.33345   0.34209   0.34212
     Eigenvalues ---    0.34362   0.34761   0.34800   0.34817   0.34842
     Eigenvalues ---    0.34991   0.34998   0.35100   0.35601   0.35665
     Eigenvalues ---    0.35687   0.35693   0.39641   0.43000   0.45075
     Eigenvalues ---    0.47879   0.48542   0.52871   0.54472   0.60024
     Eigenvalues ---    0.60063   0.85965   1.48073   5.66357
 RFO step:  Lambda=-5.10590754D-07 EMin= 2.26138246D-02
 Quartic linear search produced a step of -0.24028.
 Variable       Old X    -DE/DX   Delta X   Delta X   Delta X     New X
                                 (Linear)    (Quad)   (Total)
    R2        2.99780   0.00001   0.00002   0.00008   0.00010   2.99789
    R3        2.82983   0.00000  -0.00009   0.00011   0.00002   2.82986
    R4        2.92960   0.00001  -0.00005   0.00002  -0.00003   2.92957
    R5        2.06690  -0.00002   0.00001  -0.00006  -0.00004   2.06685
    R6        2.91916  -0.00001   0.00000  -0.00002  -0.00002   2.91915
    R7        2.81754  -0.00001  -0.00001  -0.00002  -0.00003   2.81751
    R8        2.50830  -0.00002  -0.00000  -0.00003  -0.00003   2.50828
    R9        2.06147   0.00001   0.00001   0.00002   0.00003   2.06150
   R10        2.05653  -0.00000   0.00002  -0.00004  -0.00001   2.05652
   R11        2.07050   0.00001  -0.00001   0.00004   0.00002   2.07052
   R12        2.05447   0.00000   0.00002  -0.00002  -0.00000   2.05447
   R13        2.50924  -0.00000  -0.00000  -0.00000  -0.00000   2.50923
   R14        2.05646  -0.00001  -0.00000  -0.00001  -0.00001   2.05645
   R15        2.05985   0.00003   0.00001   0.00005   0.00006   2.05992
   R16        2.06117  -0.00003  -0.00003  -0.00004  -0.00007   2.06110
   R17        2.04632   0.00001   0.00001   0.00000   0.00001   2.04633
   R18        2.04521   0.00000  -0.00002   0.00003   0.00001   2.04523
   R19        2.04556  -0.00000   0.00000  -0.00001  -0.00000   2.04556
   R20        2.04736  -0.00000   0.00000  -0.00001  -0.00001   2.04736
    A3        2.00582   0.00013   0.00002   0.00045   0.00046   2.00628
    A4        1.52401   0.00001  -0.00005  -0.00023  -0.00028   1.52373
    A5        1.96901  -0.00003   0.00002  -0.00021  -0.00018   1.96883
    A6        1.54141  -0.00014  -0.00012  -0.00032  -0.00045   1.54096
    A7        2.10263  -0.00005   0.00007  -0.00026  -0.00019   2.10245
    A8        2.22652  -0.00002   0.00002  -0.00007  -0.00005   2.22648
    A9        1.93869   0.00001   0.00011   0.00014   0.00025   1.93894
   A10        2.05335  -0.00002  -0.00003  -0.00013  -0.00016   2.05319
   A11        1.86287   0.00004   0.00011   0.00021   0.00031   1.86318
   A12        1.99701  -0.00000   0.00000   0.00000   0.00001   1.99702
   A13        2.20478   0.00003  -0.00000   0.00011   0.00010   2.20489
   A14        2.01119  -0.00001  -0.00001  -0.00005  -0.00006   2.01113
   A15        1.94845   0.00003   0.00015   0.00001   0.00016   1.94861
   A16        2.04648  -0.00000  -0.00012   0.00009  -0.00003   2.04645
   A17        2.14115   0.00001  -0.00008   0.00010   0.00002   2.14118
   A18        2.11147   0.00002  -0.00003   0.00007   0.00004   2.11152
   A19        2.11816  -0.00001  -0.00001  -0.00004  -0.00004   2.11812
   A20        2.12949   0.00001   0.00001   0.00004   0.00005   2.12954
    D4        2.08279   0.00037  -0.00010   0.00013   0.00003   2.08282
    D5       -2.17622  -0.00002  -0.00014  -0.00015  -0.00029  -2.17651
    D6       -1.76686   0.00034   0.00065   0.00144   0.00209  -1.76476
    D7        2.20792  -0.00003  -0.00003  -0.00037  -0.00040   2.20752
    D8        2.00055  -0.00003   0.00004  -0.00059  -0.00054   2.00000
    D9        1.66584   0.00009  -0.00050  -0.00122  -0.00173   1.66412
   D10        2.19084   0.00003   0.00006   0.00011   0.00017   2.19101
   D11       -1.91374  -0.00001  -0.00003  -0.00009  -0.00011  -1.91385
   D12        3.12425  -0.00002   0.00029  -0.00037  -0.00008   3.12417
   D13       -2.00830  -0.00004  -0.00000  -0.00009  -0.00009  -2.00839
   D14       -3.13101  -0.00001   0.00049  -0.00065  -0.00016  -3.13116
   D15        1.64584   0.00004  -0.00038  -0.00155  -0.00193   1.64391
   D16        2.20694   0.00001   0.00005  -0.00002   0.00003   2.20697
   D17       -0.01125   0.00001  -0.00002   0.00018   0.00016  -0.01109
   D18        3.13252   0.00000   0.00037  -0.00059  -0.00022   3.13230
   D19       -3.13500   0.00002   0.00080  -0.00123  -0.00043  -3.13543
   D20        3.14965   0.00001  -0.00096   0.00169   0.00073   3.15038
         Item               Value     Threshold  Converged?
 Maximum Force            0.000368     0.000450     YES
 RMS     Force            0.000077     0.000300     YES
 Maximum Displacement     0.002093     0.001800     NO 
 RMS     Displacement     0.000497     0.001200     YES
 Predicted change in Energy=-3.921817D-07
 GradGradGradGradGradGradGradGradGradGradGradGradGradGradGradGradGradGrad

 ---------------------------------------------------------------------------------------------------
                            Z-MATRIX (ANGSTROMS AND DEGREES)
   CD    Cent   Atom    N1       Length/X        N2       Alpha/Y        N3        Beta/Z          J
 ---------------------------------------------------------------------------------------------------
      1      1  C 
      2      2  C        1   1.586417(     1)
      3      3  C        1   1.497495(     2)      2  114.951(    20)
      4      4  C        1   1.550260(     3)      2   87.303(    21)      3  119.337(    38)      0
      5      5  H        1   1.093731(     4)      2  112.806(    22)      3 -124.705(    39)      0
      6      6  C        2   1.544746(     5)      1   88.291(    23)      3 -101.113(    40)      0
      7      7  C        2   1.490961(     6)      1  120.461(    24)      6  126.481(    41)      0
      8      8  C        3   1.327322(     7)      1  127.568(    25)      2  114.592(    42)      0
      9      9  H        4   1.090897(     8)      1  111.093(    26)      2   95.347(    43)      0
     10     10  H        4   1.088262(     9)      1  117.639(    27)      9  125.536(    44)      0
     11     11  H        2   1.095674(    10)      1  106.752(    28)      6 -109.656(    45)      0
     12     12  H        3   1.087177(    11)      1  114.421(    29)      8  179.002(    46)      0
     13     13  C        7   1.327830(    12)      2  126.331(    30)      1 -115.072(    47)      0
     14     14  H        7   1.088225(    13)      2  115.229(    31)     13 -179.402(    48)      0
     15     15  H        6   1.090061(    14)      2  111.647(    32)      1   94.189(    49)      0
     16     16  H        6   1.090690(    15)      2  117.253(    33)     15  126.450(    50)      0
     17     17  H        8   1.082871(    16)      3  122.680(    34)      1   -0.636(    51)      0
     18     18  H        8   1.082287(    17)      3  120.981(    35)     17  179.468(    52)      0
     19     19  H       13   1.082462(    18)      7  121.359(    36)      2 -179.647(    53)      0
     20     20  H       13   1.083414(    19)      7  122.014(    37)     19  180.504(    54)      0
 ---------------------------------------------------------------------------------------------------
                         Z-Matrix orientation:                         
 ---------------------------------------------------------------------
 Center     Atomic      Atomic             Coordinates (Angstroms)
 Number     Number       Type             X           Y           Z
 ---------------------------------------------------------------------
      1          6           0        0.000000    0.000000    0.000000
      2          6           0        0.000000    0.000000    1.586417
      3          6           0        1.357727    0.000000   -0.631719
      4          6           0       -0.758699   -1.349949    0.072933
      5          1           0       -0.574036    0.828860   -0.423936
      6          6           0       -0.297621   -1.515104    1.540341
      7          6           0        1.161246    0.550602    2.342268
      8          6           0        1.906765   -0.956653   -1.370067
      9          1           0       -1.836436   -1.199209   -0.003336
     10          1           0       -0.472497   -2.128610   -0.631403
     11          1           0       -0.901487    0.536736    1.902229
     12          1           0        1.932396    0.907160   -0.462102
     13          6           0        1.981415   -0.132833    3.131807
     14          1           0        1.325475    1.620048    2.225871
     15          1           0        0.616007   -2.106437    1.602324
     16          1           0       -1.017741   -1.904780    2.260884
     17          1           0        1.399973   -1.887547   -1.591898
     18          1           0        2.895940   -0.836003   -1.792347
     19          1           0        2.799729    0.351866    3.648678
     20          1           0        1.873558   -1.199747    3.286227
 ---------------------------------------------------------------------
                    Distance matrix (angstroms):
                    1          2          3          4          5
     1  C    0.000000
     2  C    1.586417   0.000000
     3  C    1.497495   2.600683   0.000000
     4  C    1.550260   2.165322   2.607328   0.000000
     5  H    1.093731   2.249010   2.112319   2.242362   0.000000
     6  C    2.181001   1.544746   3.123069   1.546982   3.070660
     7  C    2.671680   1.490961   3.030902   3.528196   3.277272
     8  C    2.535354   3.645783   1.327322   3.056408   3.199623
     9  H    2.193310   2.708858   3.469243   1.090897   2.425617
    10  H    2.270001   3.110138   2.807259   1.088262   2.966476
    11  H    2.172381   1.095674   3.437008   2.631785   2.367193
    12  H    2.184178   2.958636   1.087177   3.552858   2.507945
    13  C    3.708351   2.516323   3.817166   4.283259   4.483134
    14  H    3.055477   2.188685   3.285029   4.218981   3.354936
    15  H    2.717349   2.194720   3.158825   2.191148   3.760040
    16  H    3.126593   2.262497   4.199785   2.272019   3.857191
    17  H    2.838467   3.952777   2.118150   2.778586   3.555237
    18  H    3.506833   4.527849   2.100490   4.135190   4.084734
    19  H    4.612498   3.495026   4.530450   5.323958   5.309990
    20  H    3.968488   2.799816   4.129864   4.156512   4.885823
                    6          7          8          9         10
     6  C    0.000000
     7  C    2.653021   0.000000
     8  C    3.693461   4.075420   0.000000
     9  H    2.202426   4.189247   3.992284   0.000000
    10  H    2.263502   4.323195   2.753179   1.765951   0.000000
    11  H    2.169254   2.109193   4.563377   2.742045   3.702349
    12  H    3.853585   2.930238   2.073368   4.341814   3.876606
    13  C    3.104423   1.327830   4.577239   5.053935   4.915949
    14  H    3.596327   1.088225   4.461844   4.786988   5.044715
    15  H    1.090061   2.811523   3.438483   3.068499   2.484929
    16  H    1.090690   3.283826   4.757677   2.508941   2.951731
    17  H    3.582102   4.634568   1.082871   3.670379   2.118208
    18  H    4.665492   4.693280   1.082287   5.072263   3.790117
    19  H    4.186195   2.104953   5.262832   6.102217   5.931215
    20  H    2.803852   2.112385   4.662753   4.958354   4.659891
                   11         12         13         14         15
    11  H    0.000000
    12  H    3.709200   0.000000
    13  C    3.204888   3.741680   0.000000
    14  H    2.497532   2.846359   2.079319   0.000000
    15  H    3.062531   3.882848   2.845834   3.844327   0.000000
    16  H    2.470456   4.901528   3.590716   4.232766   1.772992
    17  H    4.835575   3.061095   5.072522   5.184991   3.296296
    18  H    5.473094   2.395118   5.057479   4.964335   4.282042
    19  H    4.096737   4.237821   1.082462   2.409583   3.872913
    20  H    3.554110   4.300290   1.083414   3.062025   2.288897
                   16         17         18         19         20
    16  H    0.000000
    17  H    4.548579   0.000000
    18  H    5.734794   1.839522   0.000000
    19  H    4.646665   5.868382   5.570013   0.000000
    20  H    3.147699   4.949085   5.193215   1.843004   0.000000
 Symmetry turned off by external request.
 Stoichiometry    C8H12
 Framework group  C1[X(C8H12)]
 Deg. of freedom    54
 Full point group                 C1      NOp   1
 Rotational constants (GHZ):           2.7942438           1.6964382           1.3162748
 Standard basis: def2TZVP (5D, 7F)
 The following finite field(s) will be applied:
 An electric field of             -0.0019 -0.0006  0.0015
   320 basis functions,   504 primitive gaussians,   360 cartesian basis functions
    30 alpha electrons       30 beta electrons
       nuclear repulsion energy       360.3872670025 Hartrees.
 NAtoms=   20 NActive=   20 NUniq=   20 SFac= 1.00D+00 NAtFMM=   60 NAOKFM=F Big=F
 Integral buffers will be    131072 words long.
 Raffenetti 2 integral format.
 Two-electron integral symmetry is turned off.
 One-electron integrals computed using PRISM.
   1 Symmetry operations used in ECPInt.
 ECPInt:  NShTT=    9316 NPrTT=   27240 LenC2=    9174 LenP2D=   21658.
 LDataN:  DoStor=T MaxTD1= 6 Len=  172
 NBasis=   320 RedAO= T EigKep=  3.43D-05  NBF=   320
 NBsUse=   320 1.00D-06 EigRej= -1.00D+00 NBFU=   320
 The nuclear repulsion energy is now       360.4237002660 hartrees.
 Initial guess from the checkpoint file:  "checkpoint.chk"
 B after Tr=    -0.000725   -0.000695   -0.000375
         Rot=    1.000000    0.000218   -0.000163   -0.000454 Ang=   0.06 deg.
 Requested convergence on RMS density matrix=1.00D-08 within 128 cycles.
 Requested convergence on MAX density matrix=1.00D-06.
[...]
 8130,0.00735528,-0.00141586,-0.00067044,0.00040768,0.00090824,-0.00029
 914,0.00119580,0.00150462,-0.00014739,-0.01534098,-0.00125212,-0.04733
 231,-0.00038728,-0.00060277,0.00074107,-0.03149812,0.00593464,-0.00219
 852,0.00012379,-0.00032901,-0.00010573,0.00019139,0.00010664,-0.000090
 46,0.01796352,-0.00160741,0.05074507,0.00525598,-0.00836951,-0.0103361
 2,-0.00223696,-0.00193683,-0.00277097,0.00061697,0.00106227,0.00072676
 ,-0.06815728,0.05431068,0.04986294,-0.00038973,-0.00081645,-0.00017188
 ,0.00100137,-0.00701489,-0.00591584,0.00062976,-0.00065327,-0.00067264
 ,-0.00101213,-0.00091833,-0.00002762,-0.00831138,0.02313723,0.02091250
 ,0.07316997,0.00988518,-0.01394331,-0.01404047,-0.00245959,-0.00204205
 ,-0.00083276,0.00251614,0.00164071,-0.00059128,0.05348640,-0.18573433,
 -0.12049449,-0.00143551,-0.00226114,-0.00098352,-0.00507729,0.00651457
 ,0.00436907,0.00107477,0.00074259,-0.00071680,0.00000396,-0.00000098,0
 .00008230,0.00162716,-0.00263248,-0.00248434,-0.05869486,0.19530674,-0
 .00645111,0.00335001,0.00349848,-0.00270109,-0.00066560,-0.00338953,0.
 00096540,-0.00130336,-0.00007323,0.04905882,-0.12041618,-0.15760720,0.
 00046747,0.00100577,-0.00020210,0.00965677,-0.01842809,-0.01272459,0.0
 0051199,-0.00130833,0.00045235,0.00052875,0.00029604,-0.00033722,-0.00
 011152,0.00199996,0.00214418,-0.05257507,0.13499889,0.16795614,-0.0027
 4804,0.00164208,0.00154974,-0.21626581,0.10042217,0.05941226,0.0009200
 9,-0.00026071,0.00093396,-0.00006631,-0.00014833,0.00012020,0.00123321
 ,-0.00053861,-0.00046626,0.00483216,-0.00327509,-0.00193413,-0.0258421
 1,0.01382010,0.00355229,0.00004464,-0.00014865,-0.00002351,0.00014672,
 -0.00001535,0.00000692,0.00003409,0.00018181,0.00023688,0.23652520,-0.
 00415631,0.00257456,0.00375413,0.09735382,-0.10618463,-0.03901935,-0.0
 0013136,0.00018863,0.00118665,0.00014488,0.00056786,0.00121269,-0.0003
 0808,0.00116876,-0.00065371,0.02621005,-0.01908612,-0.00777093,-0.0093
 2280,0.00714897,0.00392722,-0.00027901,0.00009190,0.00001250,-0.000363
 88,0.00000539,-0.00056637,-0.00027265,0.00003876,0.00000266,-0.1070489
 2,0.11658452,0.02628911,-0.01332593,-0.01647003,0.05792729,-0.03757194
 ,-0.05801784,-0.00285393,-0.00219745,-0.00519845,-0.00002634,0.0008983
 0,-0.00006470,0.00078942,0.00084255,0.00230819,-0.00410299,0.00361335,
 0.00162040,-0.01849777,0.00847351,0.00354630,0.00150365,0.00020650,-0.
 00028667,-0.00035554,-0.00052579,-0.00009131,-0.00017596,0.00022658,-0
 .00000437,-0.06037938,0.04026656,0.07305372,-0.01446845,-0.02584452,-0
 .00295450,0.00070125,-0.00016453,-0.00017798,-0.12919423,-0.12239410,-
 0.01769799,-0.00372605,0.00309169,0.00166373,0.00083229,0.00067984,-0.
 00061591,0.00005424,0.00001732,-0.00025821,-0.00003865,-0.00030005,0.0
 0008696,0.00984575,0.01235162,0.00452726,-0.00067609,-0.00126937,0.000
 44407,0.00027421,0.00004297,-0.00021646,-0.00003872,0.00006228,-0.0000
 1203,0.13451320,0.00029760,0.00154366,-0.00016270,-0.00024621,0.000354
 93,-0.00036039,-0.11815460,-0.23783632,-0.03903851,0.00001446,0.001143
 85,-0.00089020,-0.00096594,0.00046088,0.00040430,0.00010522,0.00012090
 ,-0.00015109,-0.00028504,-0.00022581,-0.00027650,-0.01443404,-0.019313
 47,-0.00582066,-0.00002070,-0.00019902,0.00013617,0.00016204,0.0001145
 8,-0.00003424,0.00005389,0.00001717,0.00016211,0.13099022,0.25367207,0
 .00770301,0.01107696,0.00286587,-0.00109590,0.00006923,0.00138530,-0.0
 1621236,-0.03775567,-0.05138253,0.00315051,-0.00081498,0.00010398,0.00
 016010,-0.00036913,0.00033992,-0.00020040,-0.00024554,0.00047411,0.000
 32094,0.00005701,-0.00030849,-0.00849826,-0.01871120,0.00142327,0.0004
 6670,0.00088843,-0.00021828,-0.00000169,-0.00004386,0.00015057,-0.0000
 8934,-0.00008996,0.00008320,0.01233180,0.04919727,0.04442586,-0.002055
 53,-0.00005897,0.00411574,-0.01807540,0.01106906,-0.02521757,-0.000810
 60,-0.00031074,0.00072120,-0.00006887,0.00030218,-0.00042029,-0.000075
 19,-0.00011125,-0.00082898,0.00053710,0.00139733,-0.00003734,-0.251595
 78,0.13540190,-0.18795384,0.00093172,-0.00019769,-0.00008988,0.0000658
 1,-0.00000415,-0.00011987,-0.00018056,-0.00044382,0.00002244,-0.001554
 60,-0.00115228,-0.00069347,0.00032646,0.00046868,-0.00028359,0.5260741
 0,-0.00241722,-0.00035897,-0.00302723,-0.00286952,0.01341534,-0.003945
 65,-0.00040703,-0.00033005,0.00000541,0.00005787,-0.00014601,-0.000393
 87,-0.00013758,-0.00008291,-0.00047684,-0.00005887,0.00130587,0.000059
 22,0.12883924,-0.23055280,0.14107751,0.00003835,0.00021238,-0.00004216
 ,0.00005959,-0.00004736,0.00009600,0.00004939,-0.00008859,0.00001166,-
 0.00337301,-0.00005166,-0.00152527,0.00017514,-0.00007135,-0.00006862,
 -0.00829171,0.67180367,-0.00034138,-0.00005785,0.00089999,-0.01740450,
 0.00776839,-0.00824405,-0.00075081,-0.00002356,-0.00008385,-0.00022636
 ,0.00041269,-0.00000343,-0.00002629,-0.00001226,-0.00032339,0.00132560
 ,0.00041218,-0.00032765,-0.18621967,0.14507706,-0.22838710,0.00019431,
 0.00002134,-0.00001454,-0.00000838,0.00006636,-0.00011791,-0.00001573,
 -0.00022683,0.00005551,-0.00073207,-0.00116418,-0.00062404,0.00007691,
 -0.00007609,-0.00005593,0.32579459,-0.13407435,0.38812699,0.00028317,-
 0.00017990,-0.00077139,-0.00168983,-0.02566542,0.00331362,-0.00007005,
 0.00016823,-0.00012980,0.00000439,-0.00087830,-0.00038883,-0.00008327,
 0.00010535,-0.00019485,-0.00245290,0.00122819,-0.00253269,-0.05779469,
 -0.04413261,-0.00235382,0.00004738,-0.00003745,-0.00000373,-0.00005264
 ,0.00001610,-0.00005751,-0.00014275,0.00009143,-0.00042848,0.00089558,
 0.00075024,0.00080385,0.00019509,0.00001871,0.00000887,0.00635772,0.02
 148417,-0.00503462,0.05419803,-0.00018794,0.00001395,-0.00012101,-0.00
 128305,-0.01063921,0.00190355,-0.00057529,-0.00038616,0.00005681,0.000
 11410,-0.00031209,-0.00027492,-0.00004444,-0.00001570,-0.00035955,-0.0
 0149195,0.00210077,-0.00008947,-0.04003451,-0.30935829,0.02976298,0.00
 029669,0.00021390,-0.00004979,-0.00002020,0.00006553,-0.00006117,-0.00
 010126,-0.00004244,-0.00020368,-0.00072209,0.00048118,-0.00008990,0.00
 037065,0.00032945,-0.00018321,-0.00369906,-0.01612374,0.00220712,0.045
 44713,0.33233678,0.00096922,0.00078266,0.00055406,-0.00275756,-0.01654
 141,0.00390879,-0.00003406,0.00001408,-0.00009651,0.00009189,0.0000162
 1,0.00040127,-0.00010174,0.00004463,-0.00013350,-0.00321547,-0.0001243
 2,0.00029742,-0.00331275,0.02657470,-0.04950394,0.00015238,0.00003308,
 -0.00004919,0.00003601,0.00006079,-0.00001830,0.00003627,0.00009304,-0
 .00014477,-0.00027275,0.00038651,0.00041021,0.00025148,-0.00018288,-0.
 00050480,0.00061137,0.02216000,0.00215334,0.01090438,-0.03459906,0.042
 26685,-0.00046964,0.00000686,-0.00039552,0.00746330,-0.00244125,0.0013
 0327,-0.00023174,0.00007512,0.00046065,-0.00966098,0.00476091,-0.00145
 875,0.00007270,0.00017912,-0.00014019,-0.23490448,0.11940926,-0.007675
 60,-0.00007750,-0.00000452,-0.00088819,0.00005700,-0.00036230,0.000145
 48,0.00073785,0.00046826,-0.00210440,0.00107938,-0.00047843,0.00049299
 ,0.00059563,-0.00177083,-0.00032704,0.00006572,-0.00003188,0.00003746,
 -0.00013473,-0.00002156,-0.00055938,0.00021906,0.00017985,0.00020339,0
 .25274289,-0.00042336,0.00006281,-0.00041090,0.02737140,-0.01783080,-0
 .00010778,0.00030802,-0.00022276,0.00004823,-0.00327202,0.00182861,-0.
 00043130,-0.00026136,0.00012586,0.00010239,0.11863611,-0.12325172,0.00
 999386,0.00131763,0.00249748,0.00039023,-0.00033641,0.00036734,0.00011
 601,-0.00083252,0.00018630,-0.00108735,0.00007729,0.00085378,0.0005329
 2,-0.00147395,-0.00560532,0.00146965,-0.00002323,-0.00001946,0.0000014
 7,-0.00042072,-0.00011038,-0.00013518,0.00000492,0.00022478,0.00024446
 ,-0.13030020,0.13304763,0.00012529,-0.00079511,-0.00037760,0.00623678,
 -0.00383174,-0.00034252,-0.00006940,0.00055150,0.00024036,-0.02757244,
 0.01607073,-0.00267370,0.00033217,-0.00006767,0.00006625,-0.00712574,0
 .00941292,-0.04649356,-0.00010394,0.00069910,0.00056264,0.00025771,-0.
 00010687,-0.00012248,-0.00119865,0.00219122,-0.00530959,0.00018600,-0.
 00099534,0.00250725,-0.00068851,-0.00175138,-0.00010552,0.00010731,-0.
 00003452,-0.00008820,0.00013792,-0.00065811,-0.00007528,0.00002104,0.0
 0020040,0.00011716,0.01232046,-0.00863983,0.05141106,0.00098178,0.0001
 1885,-0.00172094,-0.00361991,0.00229812,0.00204054,0.00016853,0.000483
 56,-0.00007964,0.00893033,0.00442390,-0.00724994,0.00007723,0.00045593
 ,0.00020392,-0.16845498,-0.06153051,0.11513388,0.00008096,-0.00081176,
 0.00030335,0.00008779,-0.00016555,0.00000342,0.00125984,-0.00044400,0.
 00097361,0.00001359,-0.00000486,-0.00076679,0.00112775,0.00012579,-0.0
 0031771,0.00009774,-0.00002233,0.00001564,0.00015055,-0.00035923,-0.00
 013039,-0.00019539,-0.00015179,-0.00024840,-0.01743049,-0.00985208,0.0
 1775220,0.17696606,-0.00017352,-0.00436227,0.00269559,-0.01896942,-0.0
 0500087,0.01817759,0.00091036,-0.00020848,-0.00008941,0.00242919,-0.00
 200125,0.00022035,-0.00015108,-0.00030302,0.00135342,-0.06079745,-0.07
 839546,0.05594467,0.00100306,-0.00178107,0.00163636,-0.00031810,0.0003
 2627,0.00003137,0.00013504,0.00065511,0.00066309,-0.00012420,-0.000097
 84,-0.00068723,0.00044338,0.00193577,-0.00060635,0.00004658,-0.0000008
 3,-0.00005975,-0.00030090,0.00026203,-0.00020559,-0.00033513,-0.000447
 23,-0.00071699,0.01125646,0.00714558,-0.01199800,0.06521829,0.08204190
 ,-0.00123268,0.00234341,-0.00310154,-0.00623322,0.00037710,0.00286736,
 -0.00030718,0.00037243,0.00036260,0.01957889,0.00703396,-0.01176866,0.
 00071371,0.00102166,-0.00019898,0.11497601,0.05600930,-0.16038769,-0.0
 0015740,-0.00096831,0.00034641,0.00006650,-0.00011109,-0.00004786,-0.0
 0024969,-0.00059813,0.00248870,-0.00020898,0.00101067,-0.00232566,-0.0
 0004999,0.00098922,0.00061275,0.00021387,-0.00001062,0.00005071,0.0001
 2639,0.00014884,0.00011829,0.00000689,-0.00022300,-0.00036907,-0.00104
 571,-0.00115634,0.00164787,-0.12608249,-0.06638713,0.16965917,-0.00108
 991,0.00125988,-0.00249011,0.00050653,-0.00021686,-0.00022569,0.011188
 73,0.01026279,0.00263194,-0.00105053,0.00049589,0.00084657,-0.00031057
 ,-0.00000506,0.00021864,0.00014795,-0.00010125,-0.00014003,0.00018542,
 0.00001974,0.00011058,-0.11735333,-0.11797041,-0.01953020,0.00014632,0
 .00003121,-0.00025499,-0.00179702,-0.00036528,0.00125398,0.00004215,0.
 00002121,-0.00018440,0.00147714,0.00041296,0.00512324,-0.00011982,0.00
 002075,-0.00000460,-0.00000105,-0.00005144,-0.00001182,0.00001161,0.00
 003746,-0.00010022,-0.00005571,-0.00000474,-0.00011516,0.11655452,-0.0
 0088128,-0.00099482,0.00367986,-0.00041134,-0.00001817,0.00022295,-0.0
 1250078,-0.01786115,-0.00581721,-0.00023621,0.00013859,0.00043599,0.00
 048347,-0.00016687,-0.00034376,-0.00011239,0.00015409,-0.00007826,-0.0
 0007305,0.00004175,-0.00016936,-0.11484935,-0.25453402,-0.05398748,-0.
 00002158,0.00036661,0.00013860,-0.00016206,0.00100229,0.00049291,0.000
 01795,-0.00002591,0.00010764,0.00051414,0.00008926,-0.00600238,0.00012
 909,-0.00001804,-0.00001841,0.00002203,0.00010736,0.00008312,0.0000589
 8,-0.00005024,-0.00003342,0.00000226,0.00002578,0.00005518,0.12813247,
 0.27195050,-0.00293883,0.00288227,-0.00457050,0.00085168,-0.00026683,-
 0.00007354,-0.00915980,-0.01656949,0.00206507,-0.00002188,-0.00049383,
 -0.00083832,-0.00085986,0.00042888,0.00056653,0.00003085,-0.00007462,-
 0.00011967,0.00009115,-0.00014186,0.00019326,-0.01805354,-0.05290684,-
 0.05365017,-0.00016849,0.00020290,0.00023738,0.00112192,0.00044640,0.0
 0011123,0.00004872,0.00010640,-0.00029495,0.00523442,-0.00593766,0.006
 33641,-0.00006138,0.00007520,0.00006437,0.00003793,0.00003741,-0.00001
 930,-0.00005681,0.00008768,-0.00022529,-0.00006823,0.00007021,0.000052
 48,0.01869864,0.06253032,0.04565853,0.00339264,-0.00117121,0.00439367,
 -0.00127192,0.00041169,0.00033974,-0.00878691,-0.00305619,0.00437550,0
 .00033660,0.00017377,-0.00010011,0.00060685,0.00006435,-0.00036717,0.0
 0000878,0.00014369,-0.00000047,-0.00018908,-0.00001335,-0.00017314,-0.
 28927744,-0.03495276,0.10691595,-0.00008427,0.00005342,0.00008360,0.00
 017764,0.00015988,-0.00004268,-0.00005219,-0.00009421,0.00043452,-0.00
 020628,0.00167987,-0.00297426,0.00009871,-0.00001281,0.00001856,0.0000
 2009,0.00003266,0.00002382,0.00000060,-0.00004062,-0.00001160,-0.00001
 060,-0.00001293,0.00003226,-0.00849415,-0.00008809,0.00527316,0.303723
 51,-0.00208574,-0.00039691,-0.00584234,0.00147650,-0.00046793,-0.00025
 312,0.02400372,0.00451890,-0.01116185,-0.00050969,-0.00053648,-0.00014
 734,-0.00034655,0.00001907,0.00039029,-0.00014957,-0.00001581,-0.00006
 711,0.00022572,0.00009294,0.00018906,-0.03910471,-0.05672642,0.0077792
 2,-0.00003218,0.00024643,0.00015773,0.00019158,0.00057773,0.00028661,0
 .00009243,0.00009418,-0.00051291,0.00160733,-0.00019628,0.00309027,-0.
 00009345,0.00001276,-0.00000415,0.00001732,-0.00003376,-0.00002207,-0.
 00000241,0.00003077,-0.00006303,-0.00000043,0.00006260,0.00005273,-0.0
 2198832,-0.00023047,0.00948704,0.03672394,0.05293616,0.00359272,-0.006
 52629,0.00811387,-0.00136394,0.00022780,0.00045172,0.01792658,0.002240
 56,-0.00415283,-0.00015593,-0.00018612,0.00025704,0.00223053,-0.000215
 51,-0.00132185,0.00006583,0.00006408,0.00011689,-0.00013749,0.00014266
 ,-0.00018890,0.10503205,0.00572230,-0.08268199,-0.00002852,0.00010000,
 0.00006936,0.00004929,0.00020119,-0.00002792,-0.00016439,-0.00007672,0
 .00033211,-0.00297225,0.00302252,-0.00504439,-0.00004827,-0.00005034,-
 0.00007316,0.00000422,0.00002151,0.00003065,-0.00002013,-0.00003587,0.
 00000020,0.00001717,0.00001182,-0.00003426,-0.00582226,-0.00130620,0.0
 0453357,-0.11822717,-0.00335629,0.07968181,-0.00175880,-0.00019966,-0.
 00023597,0.00509943,0.00140253,-0.00684494,-0.00029181,-0.00002320,0.0
 0023086,0.00023846,-0.00004433,-0.00040598,-0.00007683,-0.00008247,-0.
 00035890,0.00042773,0.00004472,0.00027315,-0.01224724,-0.01034544,-0.0
 0977182,0.00010238,0.00000176,-0.00002292,-0.00003158,0.00002211,0.000
 03720,-0.00009427,-0.00015050,0.00000511,0.00063601,0.00037487,0.00058
 630,0.00006171,0.00004396,0.00001473,-0.20671401,-0.09896509,-0.110206
 68,-0.00207526,0.00114164,0.00424296,0.00002789,-0.00006445,0.00001655
 ,-0.00004467,-0.00004414,0.00005358,-0.00002049,0.00000614,0.00000110,
 0.00001973,-0.00001491,0.00000358,0.21617591,0.00062736,0.00010415,0.0
 0003596,-0.00037931,-0.00157286,0.00324188,0.00012584,0.00002298,-0.00
 009180,-0.00029174,0.00019299,0.00023981,0.00003092,0.00004628,0.00012
 339,0.00016292,-0.00004162,-0.00035812,0.01543336,0.01014114,0.0104294
 8,-0.00006296,0.00000797,0.00000165,-0.00001894,0.00005136,-0.00013911
 ,0.00005459,0.00006929,0.00000786,0.00004694,0.00005381,-0.00015181,-0
 .00001789,-0.00000812,-0.00000712,-0.10247898,-0.11616508,-0.05996265,
 0.00093638,0.00113291,-0.00142632,-0.00019303,0.00046781,0.00023720,0.
 00004064,0.00007329,-0.00000598,0.00001001,0.00000410,0.00001667,-0.00
 000057,0.00001520,-0.00001082,0.10665196,0.11437637,0.00114749,0.00032
 703,0.00047181,-0.00651977,0.00402042,0.00741444,0.00009662,-0.0000387
 4,-0.00015721,-0.00004030,-0.00007208,0.00028692,0.00007754,0.00004394
 ,0.00014789,-0.00016836,0.00048112,0.00010039,-0.01547037,-0.01004667,
 -0.00612964,0.00005742,-0.00002681,-0.00003668,0.00005307,0.00002777,-
 0.00000477,0.00006824,0.00005382,-0.00005443,-0.00191605,-0.00066444,-
 0.00146002,-0.00003615,-0.00000539,-0.00007878,-0.10889170,-0.05661600
 ,-0.10436486,0.00430606,-0.00120125,-0.00445595,0.00020504,-0.00008629
 ,0.00001506,-0.00005013,-0.00004685,-0.00005635,0.00002096,0.00000652,
 0.00001548,0.00000537,0.00000076,-0.00004587,0.12365992,0.06108860,0.1
 0430888,0.00086811,0.00008978,0.00025134,-0.00193329,0.00135261,0.0041
 1804,0.00015739,0.00004568,-0.00019836,-0.00002336,0.00015051,0.000130
 80,0.00000649,0.00000935,0.00017713,-0.00077245,-0.00017787,0.00008658
 ,0.00720122,0.01984365,-0.00359208,-0.00012290,0.00003447,0.00000046,0
 .00003374,-0.00005291,0.00006779,0.00006913,0.00004044,0.00009262,-0.0
 0046544,-0.00014281,-0.00040757,-0.00009633,-0.00008688,0.00002280,-0.
 05315707,-0.03381088,-0.00574911,0.00233731,0.00078029,-0.00756862,-0.
 00016410,-0.00045193,-0.00062296,-0.00013041,-0.00021074,-0.00008563,0
 .00003222,-0.00003038,-0.00000076,-0.00001233,-0.00001059,0.00001835,0
 .00056572,-0.02067750,0.00339510,0.04560637,-0.00022002,-0.00009260,-0
 .00009683,-0.00083087,-0.00047090,-0.00251302,-0.00001435,-0.00008869,
 -0.00001293,-0.00014585,0.00042199,-0.00003329,-0.00004125,0.00000681,
 -0.00003511,0.00008428,0.00018129,-0.00049195,-0.00183984,-0.01503428,
 0.00321414,-0.00001760,0.00008881,0.00000333,-0.00001115,0.00005345,-0
 .00010022,0.00001923,-0.00001789,0.00006142,0.00028399,0.00000221,0.00
 024059,0.00006390,0.00002388,-0.00002923,-0.03120452,-0.32286511,0.039
 99596,0.00093864,0.00035199,0.00311976,-0.00078843,0.00025191,-0.00038
 808,0.00017519,0.00006999,0.00004612,-0.00000101,0.00001938,0.00001974
 ,-0.00000051,-0.00000268,0.00000976,0.00024448,-0.00897199,0.00275456,
 0.03330568,0.34607244,-0.00098540,0.00004868,-0.00020794,0.00421602,-0
 .00080987,-0.00443879,-0.00011394,0.00002560,0.00026398,0.00052386,0.0
 0003656,-0.00040520,-0.00001933,-0.00009230,-0.00010917,-0.00041747,0.
 00005600,0.00008083,0.00192085,0.02041242,0.00284743,0.00011187,-0.000
 10708,0.00003039,0.00005498,-0.00004330,0.00017839,-0.00009141,-0.0000
 7227,0.00001531,0.00085543,-0.00008750,0.00065100,0.00000367,0.0000590
 8,0.00004219,-0.00688346,0.03724460,-0.04872331,-0.00751115,0.00326622
 ,0.00515558,-0.00049702,-0.00089607,-0.00075411,0.00027093,-0.00000717
 ,0.00008373,-0.00002508,0.00000339,-0.00004257,0.00000045,-0.00000351,
 -0.00001605,-0.00127784,-0.01326877,0.00408369,0.00986406,-0.04576472,
 0.04126462\\-0.00004383,-0.00017632,-0.00000157,0.00003217,0.00005896,
 -0.00002678,0.00002065,0.00010780,-0.00000892,-0.00007395,0.00003462,0
 .00001426,-0.00000463,-0.00001420,0.00001036,0.00008330,-0.00001971,-0
 .00002883,-0.00002476,0.00000455,0.00003105,0.00000386,-0.00000559,-0.
 00000328,-0.00001106,-0.00000768,-0.00001636,0.00000304,0.00001025,0.0
 0001272,-0.00000088,0.00001411,0.00001934,0.00000335,-0.00000262,0.000
 00042,-0.00000936,0.00000232,0.00001518,0.00000311,-0.00000617,-0.0000
 0396,-0.00000046,-0.00001213,0.00001696,0.00000106,0.00000786,-0.00000
 807,-0.00000002,0.00000524,-0.00000511,0.00000119,0.00000140,0.0000015
 9,0.00000975,-0.00000454,-0.00001399,0.00000745,0.00000185,-0.00000501
 \\\@


 THOUGH I SPEAK WITH THE TONGUES OF MEN AND OF ANGELS, 
 AND HAVE NOT LOVE,
 I AM BECOME AS SOUNDING BRASS, A TINKLING CYMBAL.
 AND THOUGH I HAVE THE GIFT OF PROPHECY,
 AND UNDERSTAND ALL MYSTERIES, AND ALL KNOWLEDGE.
 AND THOUGH I HAVE ALL FAITH, SO THAT I COULD REMOVE MOUNTAINS,
 AND HAVE NOT LOVE, I AM NOTHING.
 AND THOUGH I BESTOW ALL MY GOODS TO FEED THE POOR,
 AND THOUGH I GIVE MY BODY TO BE BURNED,
 AND HAVE NOT LOVE IT PROFITETH ME NOTHING.
 LOVE SUFFERETH LONG, AND IS KIND,
 LOVE ENVIETH NOT,
 LOVE VAUNTETH NOT ITSELF, IS NOT PUFFED UP,
 DOTH NOT BEHAVE ITSELF UNSEEMLY, SEEKETH NOT HER OWN,
 IS NOT EASILY PROVOKED, THINKETH NO EVIL,
 REJOICETH NOT IN INIQUITY, BUT REJOICETH IN THE TRUTH,
 BEARETH ALL THINGS, BELIEVETH ALL THINGS,
 HOPETH ALL THINGS, ENDURETH ALL THINGS.
 LOVE NEVER FAILETH, BUT WHETHER THERE BE PROPHECIES, THEY SHALL FAIL, 
 WHETHER THERE BE TONGUES, THEY SHALL CEASE,
 WHETHER THERE BE KNOWLEDGE, IT SHALL VANISH AWAY.
 FOR WE KNOW IN PART, AND WE PROPHESY IN PART.
 BUT WHEN THAT WHICH IS PERFECT IS COME, THEN THAT WHICH IS IN PART 
 SHALL BE DONE AWAY. 
 WHEN I WAS A CHILD, I SPAKE AS A CHILD, I UNDERSTOOD AS A CHILD, 
 I THOUGHT AS A CHILD.
 BUT WHEN I BECAME A MAN, I PUT AWAY CHILDISH THINGS.
 FOR NOW WE SEE THROUGH A GLASS, DARKLY, BUT THEN FACE TO FACE.
 NOW I KNOW IN PART. BUT THEN SHALL I KNOW EVEN AS ALSO I AM KNOWN.
 AND NOW ABIDETH FAITH, HOPE AND LOVE, THESE THREE.
 BUT THE GREATEST OF THESE IS LOVE.

                     I CORINTHIANS 13
 Job cpu time:       0 days  1 hours 42 minutes 26.1 seconds.
 Elapsed time:       0 days  0 hours  8 minutes 33.1 seconds.
 File lengths (MBytes):  RWF=    162 Int=      0 D2E=      0 Chk=     32 Scr=      1
 Normal termination of Gaussian 16 at Fri Jun 10 22:48:15 2022.
