 Entering Gaussian System, Link 0=g16
 Input=int_initalOpt_zmat_sp.gjf
 Output=int_initalOpt_zmat_sp.out
 Initial command:
 /software/gaussian/g16-a03/l1.exe "/local_scratch/11174420/Gau-7194.inp" -scrdir="/local_scratch/11174420/"
 Entering Link 1 = /software/gaussian/g16-a03/l1.exe PID=      7195.
  
 Copyright (c) 1988,1990,1992,1993,1995,1998,2003,2009,2016,
            Gaussian, Inc.  All Rights Reserved.
  
 This is part of the Gaussian(R) 16 program.  It is based on
 the Gaussian(R) 09 system (copyright 2009, Gaussian, Inc.),
 the Gaussian(R) 03 system (copyright 2003, Gaussian, Inc.),
 the Gaussian(R) 98 system (copyright 1998, Gaussian, Inc.),
 the Gaussian(R) 94 system (copyright 1995, Gaussian, Inc.),
 the Gaussian 92(TM) system (copyright 1992, Gaussian, Inc.),
 the Gaussian 90(TM) system (copyright 1990, Gaussian, Inc.),
 the Gaussian 88(TM) system (copyright 1988, Gaussian, Inc.),
 the Gaussian 86(TM) system (copyright 1986, Carnegie Mellon
 University), and the Gaussian 82(TM) system (copyright 1983,
 Carnegie Mellon University). Gaussian is a federally registered
 trademark of Gaussian, Inc.
  
 This software contains proprietary and confidential information,
 including trade secrets, belonging to Gaussian, Inc.
  
 This software is provided under written license and may be
 used, copied, transmitted, or stored only in accord with that
 written license.
  
 The following legend is applicable only to US Government
 contracts under FAR:
  
                    RESTRICTED RIGHTS LEGEND
  
 Use, reproduction and disclosure by the US Government is
 subject to restrictions as set forth in subparagraphs (a)
 and (c) of the Commercial Computer Software - Restricted
 Rights clause in FAR 52.227-19.
  
 Gaussian, Inc.
 340 Quinnipiac St., Bldg. 40, Wallingford CT 06492
  
  
 ---------------------------------------------------------------
 Warning -- This program may not be used in any manner that
 competes with the business of Gaussian, Inc. or will provide
 assistance to any competitor of Gaussian, Inc.  The licensee
 of this program is prohibited from giving any competitor of
 Gaussian, Inc. access to this program.  By using this program,
 the user acknowledges that Gaussian, Inc. is engaged in the
 business of creating and licensing software in the field of
 computational chemistry and represents and warrants to the
 licensee that it is not a competitor of Gaussian, Inc. and that
 it will not use this program in any manner prohibited above.
 ---------------------------------------------------------------
  

 Cite this work as:
 Gaussian 16, Revision A.03,
 M. J. Frisch, G. W. Trucks, H. B. Schlegel, G. E. Scuseria, 
 M. A. Robb, J. R. Cheeseman, G. Scalmani, V. Barone, 
 G. A. Petersson, H. Nakatsuji, X. Li, M. Caricato, A. V. Marenich, 
 J. Bloino, B. G. Janesko, R. Gomperts, B. Mennucci, H. P. Hratchian, 
 J. V. Ortiz, A. F. Izmaylov, J. L. Sonnenberg, D. Williams-Young, 
 F. Ding, F. Lipparini, F. Egidi, J. Goings, B. Peng, A. Petrone, 
 T. Henderson, D. Ranasinghe, V. G. Zakrzewski, J. Gao, N. Rega, 
 G. Zheng, W. Liang, M. Hada, M. Ehara, K. Toyota, R. Fukuda, 
 J. Hasegawa, M. Ishida, T. Nakajima, Y. Honda, O. Kitao, H. Nakai, 
 T. Vreven, K. Throssell, J. A. Montgomery, Jr., J. E. Peralta, 
 F. Ogliaro, M. J. Bearpark, J. J. Heyd, E. N. Brothers, K. N. Kudin, 
 V. N. Staroverov, T. A. Keith, R. Kobayashi, J. Normand, 
 K. Raghavachari, A. P. Rendell, J. C. Burant, S. S. Iyengar, 
 J. Tomasi, M. Cossi, J. M. Millam, M. Klene, C. Adamo, R. Cammi, 
 J. W. Ochterski, R. L. Martin, K. Morokuma, O. Farkas, 
 J. B. Foresman, and D. J. Fox, Gaussian, Inc., Wallingford CT, 2016.
 
 ******************************************
 Gaussian 16:  ES64L-G16RevA.03 25-Dec-2016
                10-Jun-2022 
 ******************************************
 %nprocshared=12
 Will use up to   12 processors via shared memory.
 %chk=checkpoint.chk
 %mem=12GB
 --------------------------
 # sp B3LYP/Def2TZVP NoSymm
 --------------------------
 1/38=1,172=1/1;
 2/12=2,15=1,17=6,18=5,40=1/2;
 3/5=44,7=101,11=2,25=1,30=1,74=-5/1,2,3;
 4//1;
 5/5=2,38=5/2;
 6/7=2,8=2,9=2,10=2,28=1/1;
 99/5=1,9=1/99;
 ----------------------------
 int_initalOpt_zmat_AlignedSp
 ----------------------------
 Symbolic Z-matrix:
 Charge =  0 Multiplicity = 1
 C
 C                    1    R2
 C                    1    R3       2    A3
 C                    1    R4       2    A4       3    D4       0
 H                    1    R5       2    A5       3    D5       0
 C                    2    R6       1    A6       3    D6       0
 C                    2    R7       1    A7       6    D7       0
 C                    3    R8       1    A8       2    D8       0
 H                    4    R9       1    A9       2    D9       0
 H                    4    R10      1    A10      9    D10      0
 H                    2    R11      1    A11      6    D11      0
 H                    3    R12      1    A12      8    D12      0
 C                    7    R13      2    A13      1    D13      0
 H                    7    R14      2    A14      13   D14      0
 H                    6    R15      2    A15      1    D15      0
 H                    6    R16      2    A16      15   D16      0
 H                    8    R17      3    A17      1    D17      0
 H                    8    R18      3    A18      17   D18      0
 H                    13   R19      7    A19      2    D19      0
 H                    13   R20      7    A20      19   D20      0
       Variables:
  R2                    1.5863                   
  R3                    1.49691                  
  R4                    1.55024                  
  R5                    1.0939                   
  R6                    1.54464                  
  R7                    1.49096                  
  R8                    1.32766                  
  R9                    1.09047                  
  R10                   1.08842                  
  R11                   1.09522                  
  R12                   1.08748                  
  R13                   1.32782                  
  R14                   1.08843                  
  R15                   1.09012                  
  R16                   1.08992                  
  R17                   1.08276                  
  R18                   1.08259                  
  R19                   1.08255                  
  R20                   1.08329                  
  A3                  114.90177                  
  A4                   87.29483                  
  A5                  112.83001                  
  A6                   88.33367                  
  A7                  120.45661                  
  A8                  127.63946                  
  A9                  111.09285                  
  A10                 117.70467                  
  A11                 106.75077                  
  A12                 114.39832                  
  A13                 126.32445                  
  A14                 115.22678                  
  A15                 111.71653                  
  A16                 117.19912                  
  A17                 122.62297                  
  A18                 120.97443                  
  A19                 121.35263                  
  A20                 122.02579                  
  D4                  119.34759                  
  D5                 -124.62847                  
  D6                 -101.21221                  
  D7                  126.56916                  
  D8                  114.65603                  
  D9                   95.39732                  
  D10                 125.5343                   
  D11                -109.63384                  
  D12                 179.23723                  
  D13                -115.23177                  
  D14                -178.92398                  
  D15                  94.33699                  
  D16                 126.48271                  
  D17                  -0.6604                   
  D18                 179.752                    
  D19                -178.97775                  
  D20                 179.73642                  
 
                          Input orientation:                          
 ---------------------------------------------------------------------
 Center     Atomic      Atomic             Coordinates (Angstroms)
 Number     Number       Type             X           Y           Z
 ---------------------------------------------------------------------
      1          6           0        0.000000    0.000000    0.000000
      2          6           0        0.000000    0.000000    1.586298
      3          6           0        1.357741    0.000000   -0.630293
      4          6           0       -0.758936   -1.349780    0.073166
      5          1           0       -0.572917    0.829609   -0.424433
      6          6           0       -0.300218   -1.514518    1.541381
      7          6           0        1.161405    0.550406    2.342044
      8          6           0        1.908479   -0.955480   -1.369496
      9          1           0       -1.836171   -1.198984   -0.003904
     10          1           0       -0.473193   -2.129741   -0.630162
     11          1           0       -0.900398    0.537726    1.901950
     12          1           0        1.934096    0.905494   -0.455602
     13          6           0        1.979641   -0.132715    3.133836
     14          1           0        1.322571    1.620973    2.229856
     15          1           0        0.611529   -2.108557    1.606206
     16          1           0       -1.022780   -1.900700    2.260200
     17          1           0        1.401867   -1.886060   -1.592501
     18          1           0        2.900133   -0.835210   -1.786830
     19          1           0        2.791790    0.353785    3.658859
     20          1           0        1.869078   -1.198708    3.291770
 ---------------------------------------------------------------------
                    Distance matrix (angstroms):
                    1          2          3          4          5
     1  C    0.000000
     2  C    1.586298   0.000000
     3  C    1.496907   2.599372   0.000000
     4  C    1.550240   2.165054   2.607121   0.000000
     5  H    1.093905   2.249339   2.111414   2.243199   0.000000
     6  C    2.181685   1.544640   3.123902   1.547003   3.071436
     7  C    2.671512   1.490959   3.029238   3.527921   3.277075
     8  C    2.535893   3.645812   1.327657   3.058079   3.199533
     9  H    2.192966   2.708843   3.468573   1.090465   2.426488
    10  H    2.270862   3.110048   2.808579   1.088420   2.968168
    11  H    2.171930   1.095218   3.435199   2.631946   2.367382
    12  H    2.183625   2.954657   1.087484   3.552222   2.508355
    13  C    3.709112   2.516240   3.817465   4.283544   4.483625
    14  H    3.057614   2.188816   3.287741   4.220113   3.356246
    15  H    2.720272   2.195535   3.163032   2.191832   3.762875
    16  H    3.125258   2.261168   4.199343   2.270736   3.855414
    17  H    2.838752   3.953127   2.117785   2.780488   3.555139
    18  H    3.507294   4.526184   2.100983   4.136805   4.085318
    19  H    4.615897   3.494963   4.536352   5.326067   5.312339
    20  H    3.970656   2.799820   4.132910   4.157968   4.887492
                    6          7          8          9         10
     6  C    0.000000
     7  C    2.653547   0.000000
     8  C    3.696494   4.074474   0.000000
     9  H    2.201504   4.189188   3.993312   0.000000
    10  H    2.263630   4.323090   2.756423   1.765281   0.000000
    11  H    2.168394   2.108287   4.563092   2.743011   3.702631
    12  H    3.851825   2.924032   2.073423   4.341402   3.877907
    13  C    3.105325   1.327817   4.578427   5.053984   4.916521
    14  H    3.597046   1.088427   4.465056   4.787431   5.047011
    15  H    1.090122   2.813166   3.444774   3.067737   2.485641
    16  H    1.089923   3.284095   4.760295   2.506028   2.951050
    17  H    3.585576   4.634095   1.082759   3.671594   2.121633
    18  H    4.666979   4.689425   1.082594   5.073828   3.793813
    19  H    4.187455   2.104951   5.270556   6.102864   5.934957
    20  H    2.805253   2.112388   4.667774   4.958865   4.662039
                   11         12         13         14         15
    11  H    0.000000
    12  H    3.705085   0.000000
    13  C    3.203382   3.736846   0.000000
    14  H    2.494502   2.845620   2.079504   0.000000
    15  H    3.062058   3.883908   2.847689   3.847585   0.000000
    16  H    2.467639   4.898307   3.592149   4.231284   1.772534
    17  H    4.835944   3.060814   5.074081   5.188061   3.302403
    18  H    5.471388   2.394880   5.055072   4.965411   4.286236
    19  H    4.093021   4.238964   1.082552   2.409651   3.876861
    20  H    3.552014   4.298220   1.083286   3.062178   2.291371
                   16         17         18         19         20
    16  H    0.000000
    17  H    4.552189   0.000000
    18  H    5.736110   1.840339   0.000000
    19  H    4.646492   5.875847   5.575032   0.000000
    20  H    3.149567   4.954477   5.194939   1.842929   0.000000
 Symmetry turned off by external request.
 Stoichiometry    C8H12
 Framework group  C1[X(C8H12)]
 Deg. of freedom    54
 Full point group                 C1      NOp   1
 Rotational constants (GHZ):           2.7935540           1.6963920           1.3157302
 Standard basis: def2TZVP (5D, 7F)
   320 basis functions,   504 primitive gaussians,   360 cartesian basis functions
    30 alpha electrons       30 beta electrons
       nuclear repulsion energy       360.3732313882 Hartrees.
 NAtoms=   20 NActive=   20 NUniq=   20 SFac= 1.00D+00 NAtFMM=   60 NAOKFM=F Big=F
 Integral buffers will be    131072 words long.
 Raffenetti 2 integral format.
 Two-electron integral symmetry is turned off.
 One-electron integrals computed using PRISM.
   1 Symmetry operations used in ECPInt.
 ECPInt:  NShTT=    9316 NPrTT=   27240 LenC2=    9174 LenP2D=   21654.
 LDataN:  DoStor=T MaxTD1= 6 Len=  172
 NBasis=   320 RedAO= T EigKep=  3.42D-05  NBF=   320
 NBsUse=   320 1.00D-06 EigRej= -1.00D+00 NBFU=   320
 ExpMin= 9.52D-02 ExpMax= 1.36D+04 ExpMxC= 4.63D+02 IAcc=3 IRadAn=         5 AccDes= 0.00D+00
 Harris functional with IExCor=  402 and IRadAn=       5 diagonalized for initial guess.
 HarFok:  IExCor=  402 AccDes= 0.00D+00 IRadAn=         5 IDoV= 1 UseB2=F ITyADJ=14
 ICtDFT=  3500011 ScaDFX=  1.000000  1.000000  1.000000  1.000000
 FoFCou: FMM=F IPFlag=           0 FMFlag=      100000 FMFlg1=           0
         NFxFlg=           0 DoJE=T BraDBF=F KetDBF=T FulRan=T
         wScrn=  0.000000 ICntrl=       500 IOpCl=  0 I1Cent=   200000004 NGrid=           0
         NMat0=    1 NMatS0=      1 NMatT0=    0 NMatD0=    1 NMtDS0=    0 NMtDT0=    0
 Symmetry not used in FoFCou.
 Requested convergence on RMS density matrix=1.00D-08 within 128 cycles.
 Requested convergence on MAX density matrix=1.00D-06.
 Requested convergence on             energy=1.00D-06.
 No special actions if energy rises.
 Integral accuracy reduced to 1.0D-05 until final iterations.
 Initial convergence to 1.0D-05 achieved.  Increase integral accuracy.
 SCF Done:  E(RB3LYP) =  -312.116801195     A.U. after   13 cycles
            NFock= 13  Conv=0.89D-08     -V/T= 2.0056

 **********************************************************************

            Population analysis using the SCF density.

 **********************************************************************

 Alpha  occ. eigenvalues --  -10.18245 -10.18171 -10.17374 -10.17350 -10.16886
 Alpha  occ. eigenvalues --  -10.16703 -10.16162 -10.16074  -0.86026  -0.77607
 Alpha  occ. eigenvalues --   -0.75962  -0.67169  -0.66042  -0.59491  -0.55949
 Alpha  occ. eigenvalues --   -0.51312  -0.49606  -0.48263  -0.45706  -0.44642
 Alpha  occ. eigenvalues --   -0.40961  -0.39706  -0.36995  -0.36555  -0.34887
 Alpha  occ. eigenvalues --   -0.32688  -0.32523  -0.30629  -0.26335  -0.25433
 Alpha virt. eigenvalues --   -0.00015   0.00790   0.03672   0.04979   0.06218
 Alpha virt. eigenvalues --    0.06789   0.08623   0.09388   0.09762   0.11098
 Alpha virt. eigenvalues --    0.12636   0.13060   0.13914   0.14354   0.14583
 Alpha virt. eigenvalues --    0.16202   0.17986   0.18839   0.19494   0.20554
 Alpha virt. eigenvalues --    0.20834   0.22089   0.22914   0.24286   0.25362
 Alpha virt. eigenvalues --    0.26895   0.28168   0.29777   0.30816   0.31202
 Alpha virt. eigenvalues --    0.33109   0.33202   0.34796   0.35142   0.36382
 Alpha virt. eigenvalues --    0.37641   0.37985   0.38474   0.40141   0.40683
 Alpha virt. eigenvalues --    0.41170   0.41663   0.43329   0.44026   0.44326
 Alpha virt. eigenvalues --    0.44690   0.45723   0.46102   0.46795   0.47549
 Alpha virt. eigenvalues --    0.49014   0.49862   0.50099   0.50628   0.53305
 Alpha virt. eigenvalues --    0.54584   0.56177   0.58120   0.58455   0.59740
 Alpha virt. eigenvalues --    0.61247   0.64013   0.64819   0.67103   0.69057
 Alpha virt. eigenvalues --    0.71542   0.73081   0.74467   0.77185   0.77843
 Alpha virt. eigenvalues --    0.83717   0.87062   0.88652   0.89961   0.91429
 Alpha virt. eigenvalues --    0.93898   0.94171   0.95508   0.96007   0.97431
 Alpha virt. eigenvalues --    0.98737   1.00381   1.01560   1.02182   1.04297
 Alpha virt. eigenvalues --    1.07838   1.08318   1.09214   1.11690   1.14523
 Alpha virt. eigenvalues --    1.15800   1.17530   1.17618   1.19125   1.20035
 Alpha virt. eigenvalues --    1.21974   1.23433   1.24714   1.25821   1.28993
 Alpha virt. eigenvalues --    1.29573   1.31992   1.34180   1.38294   1.42263
 Alpha virt. eigenvalues --    1.45710   1.46538   1.48788   1.50531   1.51326
 Alpha virt. eigenvalues --    1.54238   1.55590   1.56206   1.57949   1.60102
 Alpha virt. eigenvalues --    1.60722   1.61796   1.63118   1.66082   1.66429
 Alpha virt. eigenvalues --    1.68587   1.70263   1.72785   1.75388   1.75964
 Alpha virt. eigenvalues --    1.77407   1.78114   1.78893   1.79949   1.83117
 Alpha virt. eigenvalues --    1.83914   1.84569   1.85503   1.87962   1.91349
 Alpha virt. eigenvalues --    1.92316   1.96095   1.97357   1.99585   2.00112
 Alpha virt. eigenvalues --    2.01958   2.06807   2.10127   2.13650   2.15430
 Alpha virt. eigenvalues --    2.20130   2.23103   2.25506   2.26467   2.27916
 Alpha virt. eigenvalues --    2.28929   2.31748   2.33683   2.35125   2.38403
 Alpha virt. eigenvalues --    2.39891   2.41877   2.42882   2.44699   2.45656
 Alpha virt. eigenvalues --    2.46365   2.49808   2.51315   2.53295   2.53322
 Alpha virt. eigenvalues --    2.55429   2.57407   2.58896   2.59988   2.61619
 Alpha virt. eigenvalues --    2.63266   2.64096   2.64941   2.65754   2.68168
 Alpha virt. eigenvalues --    2.69940   2.70675   2.71552   2.73975   2.74917
 Alpha virt. eigenvalues --    2.78283   2.82374   2.86319   2.87858   2.88277
 Alpha virt. eigenvalues --    2.88722   2.90933   2.91295   2.93420   2.96261
 Alpha virt. eigenvalues --    2.97016   2.98269   2.99987   3.01275   3.02490
 Alpha virt. eigenvalues --    3.04700   3.05617   3.06670   3.07039   3.09251
 Alpha virt. eigenvalues --    3.10359   3.11179   3.13461   3.14942   3.16978
 Alpha virt. eigenvalues --    3.18942   3.20249   3.21743   3.22766   3.23794
 Alpha virt. eigenvalues --    3.25282   3.26056   3.27557   3.29025   3.31234
 Alpha virt. eigenvalues --    3.33962   3.34983   3.36547   3.38150   3.40207
 Alpha virt. eigenvalues --    3.41874   3.42733   3.42964   3.44997   3.47272
 Alpha virt. eigenvalues --    3.49694   3.51312   3.52434   3.55625   3.60964
 Alpha virt. eigenvalues --    3.61371   3.63655   3.65147   3.66599   3.69517
 Alpha virt. eigenvalues --    3.70182   3.72565   3.77632   3.79021   3.81864
 Alpha virt. eigenvalues --    3.84033   3.85423   3.87860   3.91973   3.94699
 Alpha virt. eigenvalues --    3.98191   4.01089   4.03162   4.04920   4.06508
 Alpha virt. eigenvalues --    4.10136   4.10812   4.13831   4.14583   4.17652
 Alpha virt. eigenvalues --    4.20810   4.25688   4.28268   4.32417   4.33425
 Alpha virt. eigenvalues --    4.40034   4.43008   4.45546   4.49033   4.51103
 Alpha virt. eigenvalues --    4.56798   4.57818   4.60678   4.62731   4.68939
 Alpha virt. eigenvalues --    4.69720   4.73073   4.78320   4.83799   4.90388
 Alpha virt. eigenvalues --    4.91070   4.97461   5.04094   5.07983   5.13573
 Alpha virt. eigenvalues --    5.16998   5.22769  22.11209  22.22151  22.39169
 Alpha virt. eigenvalues --   22.49923  22.64654  22.71770  22.74018  22.75155
          Condensed to atoms (all electrons):
               1          2          3          4          5          6
     1  C    4.953032   0.291718   0.337821   0.289112   0.415144  -0.106860
     2  C    0.291718   4.963120  -0.023856  -0.117519  -0.053515   0.335660
     3  C    0.337821  -0.023856   4.996226  -0.009105  -0.051740   0.001759
     4  C    0.289112  -0.117519  -0.009105   4.990136  -0.041999   0.309100
     5  H    0.415144  -0.053515  -0.051740  -0.041999   0.650761   0.015368
     6  C   -0.106860   0.335660   0.001759   0.309100   0.015368   4.958187
     7  C   -0.015903   0.301214  -0.017252   0.006931   0.002657  -0.025794
     8  C   -0.049996   0.001201   0.600973   0.000148   0.000881  -0.004710
     9  H   -0.015296  -0.002764   0.003445   0.386674  -0.008793  -0.024204
    10  H   -0.030165   0.014741  -0.011086   0.404051   0.003086  -0.033348
    11  H   -0.056741   0.418068   0.008230   0.011545  -0.010485  -0.044107
    12  H   -0.056670  -0.004165   0.400032   0.009972  -0.001566  -0.003248
    13  C   -0.005432  -0.045846  -0.000743   0.000890  -0.000065  -0.002380
    14  H   -0.001110  -0.050312  -0.000885  -0.001243   0.000743   0.006552
    15  H   -0.006270  -0.018519   0.002004  -0.015484  -0.000465   0.384290
    16  H    0.018825  -0.039834  -0.000528  -0.036289  -0.001013   0.412917
    17  H   -0.010497   0.000301  -0.048214   0.005771   0.000489  -0.003268
    18  H    0.008706  -0.000447  -0.039340  -0.000311  -0.000521   0.000311
    19  H   -0.000389   0.009142   0.000075   0.000038   0.000022   0.000003
    20  H   -0.000424  -0.008663  -0.000397   0.000055  -0.000050   0.000907
               7          8          9         10         11         12
     1  C   -0.015903  -0.049996  -0.015296  -0.030165  -0.056741  -0.056670
     2  C    0.301214   0.001201  -0.002764   0.014741   0.418068  -0.004165
     3  C   -0.017252   0.600973   0.003445  -0.011086   0.008230   0.400032
     4  C    0.006931   0.000148   0.386674   0.404051   0.011545   0.009972
     5  H    0.002657   0.000881  -0.008793   0.003086  -0.010485  -0.001566
     6  C   -0.025794  -0.004710  -0.024204  -0.033348  -0.044107  -0.003248
     7  C    5.025863   0.004548   0.000140  -0.000414  -0.051652   0.007108
     8  C    0.004548   4.909217   0.000091  -0.001362  -0.000156  -0.032327
     9  H    0.000140   0.000091   0.602806  -0.026120   0.002737  -0.000358
    10  H   -0.000414  -0.001362  -0.026120   0.596219  -0.001177  -0.000036
    11  H   -0.051652  -0.000156   0.002737  -0.001177   0.660040   0.000362
    12  H    0.007108  -0.032327  -0.000358  -0.000036   0.000362   0.590866
    13  C    0.617353   0.002451   0.000013  -0.000047   0.000587   0.002040
    14  H    0.400391   0.000209   0.000019   0.000069  -0.002961  -0.000190
    15  H   -0.008814   0.001832   0.005072  -0.009967   0.008225   0.000358
    16  H    0.004170  -0.000157  -0.009377   0.002688  -0.011076   0.000029
    17  H    0.000009   0.413324  -0.000316   0.004465  -0.000057   0.007594
    18  H   -0.000076   0.412518   0.000000  -0.000080   0.000021  -0.010936
    19  H   -0.041647   0.000003  -0.000000  -0.000004  -0.000460   0.000071
    20  H   -0.044568  -0.000098   0.000011   0.000040   0.000391   0.000002
              13         14         15         16         17         18
     1  C   -0.005432  -0.001110  -0.006270   0.018825  -0.010497   0.008706
     2  C   -0.045846  -0.050312  -0.018519  -0.039834   0.000301  -0.000447
     3  C   -0.000743  -0.000885   0.002004  -0.000528  -0.048214  -0.039340
     4  C    0.000890  -0.001243  -0.015484  -0.036289   0.005771  -0.000311
     5  H   -0.000065   0.000743  -0.000465  -0.001013   0.000489  -0.000521
     6  C   -0.002380   0.006552   0.384290   0.412917  -0.003268   0.000311
     7  C    0.617353   0.400391  -0.008814   0.004170   0.000009  -0.000076
     8  C    0.002451   0.000209   0.001832  -0.000157   0.413324   0.412518
     9  H    0.000013   0.000019   0.005072  -0.009377  -0.000316   0.000000
    10  H   -0.000047   0.000069  -0.009967   0.002688   0.004465  -0.000080
    11  H    0.000587  -0.002961   0.008225  -0.011076  -0.000057   0.000021
    12  H    0.002040  -0.000190   0.000358   0.000029   0.007594  -0.010936
    13  C    4.879966  -0.030767   0.002476  -0.000078  -0.000013   0.000059
    14  H   -0.030767   0.583201   0.000016  -0.000320   0.000003   0.000000
    15  H    0.002476   0.000016   0.598119  -0.031954   0.000140  -0.000052
    16  H   -0.000078  -0.000320  -0.031954   0.600301   0.000036   0.000002
    17  H   -0.000013   0.000003   0.000140   0.000036   0.567071  -0.035557
    18  H    0.000059   0.000000  -0.000052   0.000002  -0.035557   0.556467
    19  H    0.413811  -0.010545  -0.000153   0.000008   0.000002  -0.000003
    20  H    0.413197   0.007360   0.002514  -0.000524  -0.000011   0.000006
              19         20
     1  C   -0.000389  -0.000424
     2  C    0.009142  -0.008663
     3  C    0.000075  -0.000397
     4  C    0.000038   0.000055
     5  H    0.000022  -0.000050
     6  C    0.000003   0.000907
     7  C   -0.041647  -0.044568
     8  C    0.000003  -0.000098
     9  H   -0.000000   0.000011
    10  H   -0.000004   0.000040
    11  H   -0.000460   0.000391
    12  H    0.000071   0.000002
    13  C    0.413811   0.413197
    14  H   -0.010545   0.007360
    15  H   -0.000153   0.002514
    16  H    0.000008  -0.000524
    17  H    0.000002  -0.000011
    18  H   -0.000003   0.000006
    19  H    0.555964  -0.035033
    20  H   -0.035033   0.560695
 Mulliken charges:
               1
     1  C    0.041395
     2  C    0.030278
     3  C   -0.147422
     4  C   -0.192472
     5  H    0.081059
     6  C   -0.177134
     7  C   -0.164264
     8  C   -0.258590
     9  H    0.086222
    10  H    0.088446
    11  H    0.068667
    12  H    0.091059
    13  C   -0.247469
    14  H    0.099772
    15  H    0.086632
    16  H    0.092173
    17  H    0.098727
    18  H    0.109235
    19  H    0.109096
    20  H    0.104590
 Sum of Mulliken charges =  -0.00000
 Mulliken charges with hydrogens summed into heavy atoms:
               1
     1  C    0.122455
     2  C    0.098945
     3  C   -0.056363
     4  C   -0.017804
     6  C    0.001671
     7  C   -0.064492
     8  C   -0.050628
    13  C   -0.033784
 Electronic spatial extent (au):  <R**2>=           1328.4491
 Charge=             -0.0000 electrons
 Dipole moment (field-independent basis, Debye):
    X=             -0.5045    Y=              0.2076    Z=              0.0183  Tot=              0.5458
 Quadrupole moment (field-independent basis, Debye-Ang):
   XX=            -50.4567   YY=            -49.1215   ZZ=            -53.8141
   XY=              0.5411   XZ=             -0.2352   YZ=              0.4288
 Traceless Quadrupole moment (field-independent basis, Debye-Ang):
   XX=              0.6741   YY=              2.0093   ZZ=             -2.6834
   XY=              0.5411   XZ=             -0.2352   YZ=              0.4288
 Octapole moment (field-independent basis, Debye-Ang**2):
  XXX=           -103.5356  YYY=             69.9019  ZZZ=           -133.8149  XYY=            -31.8866
  XXY=             26.0473  XXZ=            -41.5483  XZZ=            -31.5533  YZZ=             19.8425
  YYZ=            -41.6766  XYZ=              1.6973
 Hexadecapole moment (field-independent basis, Debye-Ang**3):
 XXXX=           -563.7973 YYYY=           -332.6943 ZZZZ=          -1049.3040 XXXY=              7.5139
 XXXZ=           -101.9573 YYYX=             -2.1238 YYYZ=              9.7509 ZZZX=            -83.5750
 ZZZY=             -2.9622 XXYY=           -150.1704 XXZZ=           -234.9257 YYZZ=           -211.4352
 XXYZ=              6.6135 YYXZ=            -29.4707 ZZXY=             -2.1416
 N-N= 3.603732313882D+02 E-N=-1.443432769725D+03  KE= 3.103866795531D+02
 1\1\GINC-BHC0011\SP\RB3LYP\def2TZVP\C8H12\DHANAWAY\10-Jun-2022\0\\# sp
  B3LYP/Def2TZVP NoSymm\\int_initalOpt_zmat_AlignedSp\\0,1\C\C,1,1.5862
 9779\C,1,1.49690655,2,114.90176527\C,1,1.5502399,2,87.29483004,3,119.3
 4758965,0\H,1,1.09390493,2,112.83000936,3,-124.62846589,0\C,2,1.544639
 73,1,88.33366791,3,-101.2122125,0\C,2,1.49095939,1,120.45661265,6,126.
 56916405,0\C,3,1.32765749,1,127.63946217,2,114.6560334,0\H,4,1.0904651
 3,1,111.09285437,2,95.39731827,0\H,4,1.0884199,1,117.70467368,9,125.53
 43,0\H,2,1.09521803,1,106.75077321,6,-109.63383544,0\H,3,1.08748426,1,
 114.39832296,8,179.23722559,0\C,7,1.32781743,2,126.32444563,1,-115.231
 7652,0\H,7,1.0884266,2,115.22677776,13,-178.92398343,0\H,6,1.09012245,
 2,111.71652915,1,94.33698728,0\H,6,1.08992272,2,117.19912474,15,126.48
 270955,0\H,8,1.08275886,3,122.62296581,1,-0.66040349,0\H,8,1.08259413,
 3,120.97442586,17,179.75200174,0\H,13,1.08255209,7,121.35263001,2,-178
 .97775057,0\H,13,1.08328633,7,122.02579251,19,179.73641624,0\\Version=
 ES64L-G16RevA.03\HF=-312.1168012\RMSD=8.930e-09\Dipole=-0.1984723,0.08
 16779,0.0072006\Quadrupole=0.5011614,1.493849,-1.9950104,0.4022949,-0.
 1748388,0.3187871\PG=C01 [X(C8H12)]\\@


 ... THE UNIVERSE IS NOT ONLY QUEERER THAN WE SUPPOSE,
 BUT QUEERER THAN WE CAN SUPPOSE ... 

                                   -- J. B. S. HALDANE
 Job cpu time:       0 days  0 hours 12 minutes 28.9 seconds.
 Elapsed time:       0 days  0 hours  1 minutes  3.1 seconds.
 File lengths (MBytes):  RWF=     60 Int=      0 D2E=      0 Chk=     32 Scr=      1
 Normal termination of Gaussian 16 at Fri Jun 10 22:21:08 2022.
