 Entering Gaussian System, Link 0=g16
 Input=ts_zmat_field_N100.gjf
 Output=ts_zmat_field_N100.out
 Initial command:
 /software/gaussian/g16-a03/l1.exe "/local_scratch/11174810/Gau-31636.inp" -scrdir="/local_scratch/11174810/"
 Entering Link 1 = /software/gaussian/g16-a03/l1.exe PID=     31637.
  
 Copyright (c) 1988,1990,1992,1993,1995,1998,2003,2009,2016,
            Gaussian, Inc.  All Rights Reserved.
  
 This is part of the Gaussian(R) 16 program.  It is based on
 the Gaussian(R) 09 system (copyright 2009, Gaussian, Inc.),
 the Gaussian(R) 03 system (copyright 2003, Gaussian, Inc.),
 the Gaussian(R) 98 system (copyright 1998, Gaussian, Inc.),
 the Gaussian(R) 94 system (copyright 1995, Gaussian, Inc.),
 the Gaussian 92(TM) system (copyright 1992, Gaussian, Inc.),
 the Gaussian 90(TM) system (copyright 1990, Gaussian, Inc.),
 the Gaussian 88(TM) system (copyright 1988, Gaussian, Inc.),
 the Gaussian 86(TM) system (copyright 1986, Carnegie Mellon
 University), and the Gaussian 82(TM) system (copyright 1983,
 Carnegie Mellon University). Gaussian is a federally registered
 trademark of Gaussian, Inc.
  
 This software contains proprietary and confidential information,
 including trade secrets, belonging to Gaussian, Inc.
  
 This software is provided under written license and may be
 used, copied, transmitted, or stored only in accord with that
 written license.
  
 The following legend is applicable only to US Government
 contracts under FAR:
  
                    RESTRICTED RIGHTS LEGEND
  
 Use, reproduction and disclosure by the US Government is
 subject to restrictions as set forth in subparagraphs (a)
 and (c) of the Commercial Computer Software - Restricted
 Rights clause in FAR 52.227-19.
  
 Gaussian, Inc.
 340 Quinnipiac St., Bldg. 40, Wallingford CT 06492
  
  
 ---------------------------------------------------------------
 Warning -- This program may not be used in any manner that
 competes with the business of Gaussian, Inc. or will provide
 assistance to any competitor of Gaussian, Inc.  The licensee
 of this program is prohibited from giving any competitor of
 Gaussian, Inc. access to this program.  By using this program,
 the user acknowledges that Gaussian, Inc. is engaged in the
 business of creating and licensing software in the field of
 computational chemistry and represents and warrants to the
 licensee that it is not a competitor of Gaussian, Inc. and that
 it will not use this program in any manner prohibited above.
 ---------------------------------------------------------------
  

 Cite this work as:
 Gaussian 16, Revision A.03,
 M. J. Frisch, G. W. Trucks, H. B. Schlegel, G. E. Scuseria, 
 M. A. Robb, J. R. Cheeseman, G. Scalmani, V. Barone, 
 G. A. Petersson, H. Nakatsuji, X. Li, M. Caricato, A. V. Marenich, 
 J. Bloino, B. G. Janesko, R. Gomperts, B. Mennucci, H. P. Hratchian, 
 J. V. Ortiz, A. F. Izmaylov, J. L. Sonnenberg, D. Williams-Young, 
 F. Ding, F. Lipparini, F. Egidi, J. Goings, B. Peng, A. Petrone, 
 T. Henderson, D. Ranasinghe, V. G. Zakrzewski, J. Gao, N. Rega, 
 G. Zheng, W. Liang, M. Hada, M. Ehara, K. Toyota, R. Fukuda, 
 J. Hasegawa, M. Ishida, T. Nakajima, Y. Honda, O. Kitao, H. Nakai, 
 T. Vreven, K. Throssell, J. A. Montgomery, Jr., J. E. Peralta, 
 F. Ogliaro, M. J. Bearpark, J. J. Heyd, E. N. Brothers, K. N. Kudin, 
 V. N. Staroverov, T. A. Keith, R. Kobayashi, J. Normand, 
 K. Raghavachari, A. P. Rendell, J. C. Burant, S. S. Iyengar, 
 J. Tomasi, M. Cossi, J. M. Millam, M. Klene, C. Adamo, R. Cammi, 
 J. W. Ochterski, R. L. Martin, K. Morokuma, O. Farkas, 
 J. B. Foresman, and D. J. Fox, Gaussian, Inc., Wallingford CT, 2016.
 
 ******************************************
 Gaussian 16:  ES64L-G16RevA.03 25-Dec-2016
                11-Jun-2022 
 ******************************************
 %nprocshared=12
 Will use up to   12 processors via shared memory.
 %chk=checkpoint.chk
 %mem=12GB
 ----------------------------------------------------------------------
 # Opt=(TS, CalcFC, noeigentest, Z-matrix, MaxStep=10) geom=allcheckpoi
 nt guess=read Field=read NoSymm B3LYP/Def2TZVP freq=noraman pop=none
 ----------------------------------------------------------------------
 1/5=1,8=10,10=4,11=1,18=40,26=3,29=7,38=1/1,3;
 2/12=2,15=1,29=3,40=1/2;
 3/5=44,7=101,11=2,14=-6,25=1,30=1,71=2,74=-5,116=-2,140=1/1,2,3;
 4/5=1/1;
 5/5=2,38=6/2;
 8/6=4,10=90,11=11/1;
 11/6=1,8=1,9=11,15=111,16=1,31=1/1,2,10;
 10/6=1,13=1,31=1/2;
 7/10=1,18=20,25=1,30=1/1,2,3,16;
 1/5=1,8=10,10=4,11=1,18=40,26=3/3(2);
 2/15=1,29=3/2;
 99//99;
 2/15=1,29=3/2;
 3/5=44,7=101,11=2,14=-2,25=1,30=1,71=1,74=-5/1,2,3;
 4/5=5,16=3,69=1/1;
 5/5=2,38=5/2;
 7/30=1/1,2,3,16;
 1/5=1,8=10,11=1,18=40,26=3/3(-5);
 2/15=1,29=3/2;
 99/9=1/99;
 Structure from the checkpoint file:  "checkpoint.chk"
 -----------------
 ts_zmat_initalOpt
 -----------------
 Charge =  0 Multiplicity = 1
 Z-Matrix found in chk file.
 C
 C,1,R2
 C,1,R3,2,A3
 H,1,R4,2,A4,3,D4,0
 C,3,R5,1,A5,2,D5,0
 C,2,R6,1,A6,3,D6,0
 H,2,R7,1,A7,6,D7,0
 H,3,R8,1,A8,5,D8,0
 H,3,R9,1,A9,5,D9,0
 C,5,R10,3,A10,1,D10,0
 H,6,R11,2,A11,1,D11,0
 H,6,R12,2,A12,11,D12,0
 H,5,R13,3,A13,10,D13,0
 H,5,R14,3,A14,10,D14,0
 C,10,R15,5,A15,3,D15,0
 H,10,R16,5,A16,15,D16,0
 C,15,R17,10,A17,5,D17,0
 H,15,R18,10,A18,17,D18,0
 H,17,R19,15,A19,10,D19,0
 H,17,R20,15,A20,19,D20,0
      Variables:
 R2=1.3915669
 R3=1.52423277
 R4=1.08428211
 R5=1.53953117
 R6=1.3762189
 R7=1.08755696
 R8=1.09005766
 R9=1.09039774
 R10=1.52414123
 R11=1.07973049
 R12=1.08183609
 R13=1.09093398
 R14=1.09062266
 R15=1.39188946
 R16=1.08472092
 R17=1.37861999
 R18=1.08864094
 R19=1.0793347
 R20=1.08236676
 A3=123.98956842
 A4=116.85537784
 A5=102.18923929
 A6=124.69842512
 A7=116.44935299
 A8=110.61551576
 A9=111.98556228
 A10=102.22330874
 A11=121.16692903
 A12=120.19665266
 A13=112.72316059
 A14=112.59612453
 A15=124.07341358
 A16=116.38309969
 A17=124.86188926
 A18=116.17256075
 A19=121.36085343
 A20=120.11395377
 D4=-160.42980698
 D5=98.42585329
 D6=-19.595013
 D7=-165.5712093
 D8=119.98020614
 D9=-121.25657933
 D10=2.4823534
 D11=25.45456513
 D12=158.67382604
 D13=119.35640035
 D14=-119.94486388
 D15=-101.82515181
 D16=-161.73190476
 D17=18.65574357
 D18=164.14411529
 D19=-26.88866254
 D20=-159.02457568
 Recover connectivity data from disk.

 GradGradGradGradGradGradGradGradGradGradGradGradGradGradGradGradGradGrad
 Berny optimization.
 Initialization pass.
                       ----------------------------
                       !    Initial Parameters    !
                       ! (Angstroms and Degrees)  !
 ----------------------                            ----------------------
 !      Name          Value   Derivative information (Atomic Units)     !
 ------------------------------------------------------------------------
 !       R2          1.3916   calculate D2E/DX2 analytically            !
 !       R3          1.5242   calculate D2E/DX2 analytically            !
 !       R4          1.0843   calculate D2E/DX2 analytically            !
 !       R5          1.5395   calculate D2E/DX2 analytically            !
 !       R6          1.3762   calculate D2E/DX2 analytically            !
 !       R7          1.0876   calculate D2E/DX2 analytically            !
 !       R8          1.0901   calculate D2E/DX2 analytically            !
 !       R9          1.0904   calculate D2E/DX2 analytically            !
 !       R10         1.5241   calculate D2E/DX2 analytically            !
 !       R11         1.0797   calculate D2E/DX2 analytically            !
 !       R12         1.0818   calculate D2E/DX2 analytically            !
 !       R13         1.0909   calculate D2E/DX2 analytically            !
 !       R14         1.0906   calculate D2E/DX2 analytically            !
 !       R15         1.3919   calculate D2E/DX2 analytically            !
 !       R16         1.0847   calculate D2E/DX2 analytically            !
 !       R17         1.3786   calculate D2E/DX2 analytically            !
 !       R18         1.0886   calculate D2E/DX2 analytically            !
 !       R19         1.0793   calculate D2E/DX2 analytically            !
 !       R20         1.0824   calculate D2E/DX2 analytically            !
 !       A3        123.9896   calculate D2E/DX2 analytically            !
 !       A4        116.8554   calculate D2E/DX2 analytically            !
 !       A5        102.1892   calculate D2E/DX2 analytically            !
 !       A6        124.6984   calculate D2E/DX2 analytically            !
 !       A7        116.4494   calculate D2E/DX2 analytically            !
 !       A8        110.6155   calculate D2E/DX2 analytically            !
 !       A9        111.9856   calculate D2E/DX2 analytically            !
 !       A10       102.2233   calculate D2E/DX2 analytically            !
 !       A11       121.1669   calculate D2E/DX2 analytically            !
 !       A12       120.1967   calculate D2E/DX2 analytically            !
 !       A13       112.7232   calculate D2E/DX2 analytically            !
 !       A14       112.5961   calculate D2E/DX2 analytically            !
 !       A15       124.0734   calculate D2E/DX2 analytically            !
 !       A16       116.3831   calculate D2E/DX2 analytically            !
 !       A17       124.8619   calculate D2E/DX2 analytically            !
 !       A18       116.1726   calculate D2E/DX2 analytically            !
 !       A19       121.3609   calculate D2E/DX2 analytically            !
 !       A20       120.114    calculate D2E/DX2 analytically            !
 !       D4       -160.4298   calculate D2E/DX2 analytically            !
 !       D5         98.4259   calculate D2E/DX2 analytically            !
 !       D6        -19.595    calculate D2E/DX2 analytically            !
 !       D7       -165.5712   calculate D2E/DX2 analytically            !
 !       D8        119.9802   calculate D2E/DX2 analytically            !
 !       D9       -121.2566   calculate D2E/DX2 analytically            !
 !       D10         2.4824   calculate D2E/DX2 analytically            !
 !       D11        25.4546   calculate D2E/DX2 analytically            !
 !       D12       158.6738   calculate D2E/DX2 analytically            !
 !       D13       119.3564   calculate D2E/DX2 analytically            !
 !       D14      -119.9449   calculate D2E/DX2 analytically            !
 !       D15      -101.8252   calculate D2E/DX2 analytically            !
 !       D16      -161.7319   calculate D2E/DX2 analytically            !
 !       D17        18.6557   calculate D2E/DX2 analytically            !
 !       D18       164.1441   calculate D2E/DX2 analytically            !
 !       D19       -26.8887   calculate D2E/DX2 analytically            !
 !       D20      -159.0246   calculate D2E/DX2 analytically            !
 ------------------------------------------------------------------------
 Trust Radius=1.00D-01 FncErr=1.00D-07 GrdErr=1.00D-06 EigMax=2.50D+02 EigMin=1.00D-04
 Number of steps in this run=     64 maximum allowed number of steps=    108.
 Search for a saddle point of order  1.
 GradGradGradGradGradGradGradGradGradGradGradGradGradGradGradGradGradGrad

 ---------------------------------------------------------------------------------------------------
                            Z-MATRIX (ANGSTROMS AND DEGREES)
   CD    Cent   Atom    N1       Length/X        N2       Alpha/Y        N3        Beta/Z          J
 ---------------------------------------------------------------------------------------------------
      1      1  C 
      2      2  C        1   1.391567(     1)
      3      3  C        1   1.524233(     2)      2  123.990(    20)
      4      4  H        1   1.084282(     3)      2  116.855(    21)      3 -160.430(    38)      0
      5      5  C        3   1.539531(     4)      1  102.189(    22)      2   98.426(    39)      0
      6      6  C        2   1.376219(     5)      1  124.698(    23)      3  -19.595(    40)      0
      7      7  H        2   1.087557(     6)      1  116.449(    24)      6 -165.571(    41)      0
      8      8  H        3   1.090058(     7)      1  110.616(    25)      5  119.980(    42)      0
      9      9  H        3   1.090398(     8)      1  111.986(    26)      5 -121.257(    43)      0
     10     10  C        5   1.524141(     9)      3  102.223(    27)      1    2.482(    44)      0
     11     11  H        6   1.079730(    10)      2  121.167(    28)      1   25.455(    45)      0
     12     12  H        6   1.081836(    11)      2  120.197(    29)     11  158.674(    46)      0
     13     13  H        5   1.090934(    12)      3  112.723(    30)     10  119.356(    47)      0
     14     14  H        5   1.090623(    13)      3  112.596(    31)     10 -119.945(    48)      0
     15     15  C       10   1.391889(    14)      5  124.073(    32)      3 -101.825(    49)      0
     16     16  H       10   1.084721(    15)      5  116.383(    33)     15 -161.732(    50)      0
     17     17  C       15   1.378620(    16)     10  124.862(    34)      5   18.656(    51)      0
     18     18  H       15   1.088641(    17)     10  116.173(    35)     17  164.144(    52)      0
     19     19  H       17   1.079335(    18)     15  121.361(    36)     10  -26.889(    53)      0
     20     20  H       17   1.082367(    19)     15  120.114(    37)     19 -159.025(    54)      0
 ---------------------------------------------------------------------------------------------------
                         Z-Matrix orientation:                         
 ---------------------------------------------------------------------
 Center     Atomic      Atomic             Coordinates (Angstroms)
 Number     Number       Type             X           Y           Z
 ---------------------------------------------------------------------
      1          6           0        0.000000    0.000000    0.000000
      2          6           0        0.000000    0.000000    1.391567
      3          6           0        1.263801    0.000000   -0.852110
      4          1           0       -0.911460    0.324022   -0.489814
      5          6           0        1.410051   -1.488581   -1.216657
      6          6           0        1.065944   -0.379461    2.174989
      7          1           0       -0.969765    0.087679    1.875972
      8          1           0        1.135074    0.633814   -1.729570
      9          1           0        2.123233    0.392318   -0.307655
     10          6           0        0.173188   -2.101969   -0.570955
     11          1           0        2.079300   -0.318710    1.807242
     12          1           0        0.964675   -0.414863    3.251493
     13          1           0        1.416735   -1.659908   -2.294034
     14          1           0        2.328301   -1.927695   -0.824925
     15          6           0        0.187866   -2.804356    0.630625
     16          1           0       -0.687075   -2.244238   -1.216189
     17          6           0        1.195462   -2.739108    1.569286
     18          1           0       -0.762387   -3.228340    0.950616
     19          1           0        2.209254   -2.496751    1.289190
     20          1           0        1.084974   -3.243534    2.520530
 ---------------------------------------------------------------------
                    Distance matrix (angstroms):
                    1          2          3          4          5
     1  C    0.000000
     2  C    1.391567   0.000000
     3  C    1.524233   2.575127   0.000000
     4  H    1.084282   2.115501   2.228904   0.000000
     5  C    2.384192   3.317672   1.539531   3.033685   0.000000
     6  C    2.451694   1.376219   3.057199   3.392078   3.584944
     7  H    2.113623   1.087557   3.526888   2.378276   4.208619
     8  H    2.163683   3.381066   1.090058   2.412731   2.200738
     9  H    2.180982   2.747615   1.090398   3.040923   2.207418
    10  C    2.185008   2.880931   2.384693   2.658662   1.524141
    11  H    2.773299   2.144259   2.799779   3.825469   3.310658
    12  H    3.416857   2.135892   4.135353   4.250083   4.616882
    13  H    3.166231   4.283233   2.204047   3.551293   1.090934
    14  H    3.133288   3.748310   2.202250   3.959619   1.090623
    15  C    2.880520   2.911828   3.349709   3.500093   2.576325
    16  H    2.643443   3.508428   2.995843   2.678420   2.229115
    17  C    3.375574   2.993898   3.656575   4.249915   3.061266
    18  H    3.450665   3.346319   4.216331   3.836188   3.527510
    19  H    3.574434   3.335423   3.422398   4.567326   2.816807
    20  H    4.248617   3.601699   4.682648   5.076945   4.141510
                    6          7          8          9         10
     6  C    0.000000
     7  H    2.109916   0.000000
     8  H    4.034487   4.210527   0.000000
     9  H    2.806604   3.798377   1.748319   0.000000
    10  C    3.362180   3.476831   3.122839   3.177022   0.000000
    11  H    1.079730   3.076796   3.782578   2.231654   3.531160
    12  H    1.081836   2.426245   5.093107   3.829012   4.252515
    13  H    4.662055   5.112571   2.378888   2.942187   2.170444
    14  H    3.604172   4.715274   2.967069   2.385808   2.177012
    15  C    3.006027   3.354828   4.276533   3.852887   1.391889
    16  H    4.248595   3.883196   3.444847   3.959127   1.084721
    17  C    2.439587   3.573932   4.718336   3.766894   2.455936
    18  H    3.599722   3.448952   5.069516   4.797834   2.111680
    19  H    2.564120   4.138810   4.479643   3.302125   2.785957
    20  H    2.884904   3.966659   5.753232   4.721867   3.419327
                   11         12         13         14         15
    11  H    0.000000
    12  H    1.826882   0.000000
    13  H    4.365577   5.701522   0.000000
    14  H    3.095018   4.556898   1.749555   0.000000
    15  C    3.337722   3.630710   3.372463   2.732878   0.000000
    16  H    4.527871   5.102457   2.434996   3.057086   2.118956
    17  C    2.587686   2.878401   4.017322   2.770191   1.378620
    18  H    4.156314   4.023982   4.211450   3.794282   1.088641
    19  H    2.242571   3.119914   3.764025   2.192597   2.148101
    20  H    3.170498   2.924065   5.079169   3.803861   2.137620
                   16         17         18         19         20
    16  H    0.000000
    17  C    3.398192   0.000000
    18  H    2.381002   2.110753   0.000000
    19  H    3.837891   1.079335   3.079043   0.000000
    20  H    4.254622   1.082367   2.424377   1.826989   0.000000
 Symmetry turned off by external request.
 Stoichiometry    C8H12
 Framework group  C1[X(C8H12)]
 Deg. of freedom    54
 Full point group                 C1      NOp   1
 Rotational constants (GHZ):           2.4945786           2.3056306           1.5818608
 Standard basis: def2TZVP (5D, 7F)
 The following finite field(s) will be applied:
 An electric field of             -0.0073 -0.0059  0.0034
   320 basis functions,   504 primitive gaussians,   360 cartesian basis functions
    30 alpha electrons       30 beta electrons
       nuclear repulsion energy       368.1324725693 Hartrees.
 NAtoms=   20 NActive=   20 NUniq=   20 SFac= 1.00D+00 NAtFMM=   60 NAOKFM=F Big=F
 Integral buffers will be    131072 words long.
 Raffenetti 2 integral format.
 Two-electron integral symmetry is turned off.
 One-electron integrals computed using PRISM.
   1 Symmetry operations used in ECPInt.
 ECPInt:  NShTT=    9316 NPrTT=   27240 LenC2=    9238 LenP2D=   22130.
 LDataN:  DoStor=T MaxTD1= 6 Len=  172
 NBasis=   320 RedAO= T EigKep=  2.60D-05  NBF=   320
 NBsUse=   320 1.00D-06 EigRej= -1.00D+00 NBFU=   320
 The nuclear repulsion energy is now       368.5006580165 hartrees.
 Initial guess from the checkpoint file:  "checkpoint.chk"
 B after Tr=    -0.000000    0.000000   -0.000000
         Rot=    1.000000   -0.000000    0.000000   -0.000000 Ang=   0.00 deg.
 Requested convergence on RMS density matrix=1.00D-08 within 128 cycles.
 Requested convergence on MAX density matrix=1.00D-06.
 Requested convergence on             energy=1.00D-06.
 No special actions if energy rises.
 SCF Done:  E(RB3LYP) =  -312.084977079     A.U. after   10 cycles
            NFock= 10  Conv=0.79D-08     -V/T= 2.0056
 DoSCS=F DFT=T ScalE2(SS,OS)=  1.000000  1.000000
 Range of M.O.s used for correlation:     1   320
 NBasis=   320 NAE=    30 NBE=    30 NFC=     0 NFV=     0
 NROrb=    320 NOA=    30 NOB=    30 NVA=   290 NVB=   290

 **** Warning!!: The largest alpha MO coefficient is  0.35091351D+02

   1 Symmetry operations used in ECPInt.
 ECPInt:  NShTT=    9316 NPrTT=   27240 LenC2=    9238 LenP2D=   22130.
 LDataN:  DoStor=T MaxTD1= 7 Len=  274
 Symmetrizing basis deriv contribution to polar:
 IMax=3 JMax=2 DiffMx= 0.00D+00
 G2DrvN: will do    21 centers at a time, making    1 passes.
 Calling FoFCou, ICntrl=  3107 FMM=F I1Cent=   0 AccDes= 0.00D+00.
 End of G2Drv F.D. properties file   721 does not exist.
 End of G2Drv F.D. properties file   722 does not exist.
 End of G2Drv F.D. properties file   788 does not exist.
          IDoAtm=11111111111111111111
          Differentiating once with respect to nuclear coordinates.
 Keep R1 ints in memory in canonical form, NReq=1342482924.
          There are    63 degrees of freedom in the 1st order CPHF.  IDoFFX=6 NUNeed=     0.
     57 vectors produced by pass  0 Test12= 1.38D-14 1.59D-09 XBig12= 1.14D-01 1.28D-01.
 AX will form    57 AO Fock derivatives at one time.
     57 vectors produced by pass  1 Test12= 1.38D-14 1.59D-09 XBig12= 2.72D-02 4.94D-02.
     57 vectors produced by pass  2 Test12= 1.38D-14 1.59D-09 XBig12= 2.02D-04 2.11D-03.
     57 vectors produced by pass  3 Test12= 1.38D-14 1.59D-09 XBig12= 8.05D-07 1.17D-04.
     57 vectors produced by pass  4 Test12= 1.38D-14 1.59D-09 XBig12= 1.69D-09 5.71D-06.
     49 vectors produced by pass  5 Test12= 1.38D-14 1.59D-09 XBig12= 2.65D-12 1.93D-07.
      7 vectors produced by pass  6 Test12= 1.38D-14 1.59D-09 XBig12= 3.52D-15 7.38D-09.
 InvSVY:  IOpt=1 It=  1 EMax= 3.89D-16
 Solved reduced A of dimension   341 with    63 vectors.
 End of Minotr F.D. properties file   721 does not exist.
 End of Minotr F.D. properties file   722 does not exist.
 End of Minotr F.D. properties file   788 does not exist.
   1 Symmetry operations used in ECPInt.
 ECPInt:  NShTT=    9316 NPrTT=   27240 LenC2=    9238 LenP2D=   22130.
 LDataN:  DoStor=T MaxTD1= 8 Len=  415
 Calling FoFJK, ICntrl=    100147 FMM=F ISym2X=0 I1Cent= 0 IOpClX= 0 NMat=1 NMatS=1 NMatT=0.
 -------------------------------------------------------------------
 Center     Atomic                   Forces (Hartrees/Bohr)
 Number     Number              X              Y              Z
 -------------------------------------------------------------------
      1        6           0.000940418    0.001226549   -0.000002040
      2        6          -0.000493980   -0.000979616   -0.000023733
      3        6           0.000173098   -0.000274578   -0.000096331
      4        1          -0.000078541    0.000070455   -0.000017512
      5        6          -0.000028679   -0.000054357   -0.000055439
      6        6           0.000043805   -0.000073895   -0.000249771
      7        1          -0.000239837    0.000134428    0.000156962
      8        1           0.000140794   -0.000054155    0.000221321
      9        1          -0.000152384    0.000011299   -0.000240003
     10        6           0.000018754   -0.000118890    0.000046617
     11        1          -0.000061548    0.000136282    0.000107443
     12        1           0.000070629    0.000128829    0.000056841
     13        1           0.000086166    0.000092724    0.000135630
     14        1          -0.000057190    0.000093785   -0.000112325
     15        6           0.000308230   -0.000205466   -0.000531369
     16        1          -0.000198129   -0.000017716   -0.000119529
     17        6           0.000108931    0.000129295    0.000204360
     18        1          -0.000551024   -0.000091589    0.000244683
     19        1          -0.000070523   -0.000044661    0.000081898
     20        1           0.000041008   -0.000108723    0.000192298
 -------------------------------------------------------------------
 Cartesian Forces:  Max     0.001226549 RMS     0.000293341
 -----------------------------------------------------------------------------------------------
                       Internal Coordinate Forces (Hartree/Bohr or radian)
  Cent   Atom   N1       Length/X         N2         Alpha/Y        N3         Beta/Z          J
 -----------------------------------------------------------------------------------------------
      1  C 
      2  C        1   0.000048(     1)
      3  C        1  -0.000134(     2)      2  -0.000540(    20)
      4  H        1   0.000095(     3)      2  -0.000058(    21)      3   0.000073(    38)     0
      5  C        3   0.000262(     4)      1  -0.000198(    22)      2   0.000947(    39)     0
      6  C        2  -0.000060(     5)      1  -0.000100(    23)      3   0.000465(    40)     0
      7  H        2   0.000295(     6)      1   0.000059(    24)      6  -0.000207(    41)     0
      8  H        3  -0.000226(     7)      1   0.000160(    25)      5   0.000232(    42)     0
      9  H        3  -0.000236(     8)      1   0.000214(    26)      5  -0.000231(    43)     0
     10  C        5   0.000513(     9)      3   0.000721(    27)      1   0.001169(    44)     0
     11  H        6  -0.000087(    10)      2   0.000050(    28)      1   0.000021(    45)     0
     12  H        6   0.000046(    11)      2   0.000068(    29)     11  -0.000260(    46)     0
     13  H        5  -0.000148(    12)      3  -0.000126(    30)     10   0.000178(    47)     0
     14  H        5  -0.000126(    13)      3  -0.000047(    31)     10  -0.000173(    48)     0
     15  C       10   0.000326(    14)      5   0.001240(    32)      3  -0.000224(    49)     0
     16  H       10   0.000231(    15)      5   0.000034(    33)     15  -0.000038(    50)     0
     17  C       15   0.000383(    16)     10   0.000671(    34)      5   0.000058(    51)     0
     18  H       15   0.000589(    17)     10  -0.000018(    35)     17  -0.000294(    52)     0
     19  H       17  -0.000098(    18)     15   0.000126(    36)     10   0.000025(    53)     0
     20  H       17   0.000215(    19)     15   0.000113(    37)     19   0.000056(    54)     0
 -----------------------------------------------------------------------------------------------
 Internal  Forces:  Max     0.001239601 RMS     0.000365188

 GradGradGradGradGradGradGradGradGradGradGradGradGradGradGradGradGradGrad
 Berny optimization.
 Search for a saddle point.
 Step number   1 out of a maximum of   64
 All quantities printed in internal units (Hartrees-Bohrs-Radians)
 Swapping is turned off.
 Second derivative matrix not updated -- analytic derivatives used.
 ITU=  0
     Eigenvalues ---   -0.14596   0.00516   0.01451   0.02244   0.03565
     Eigenvalues ---    0.05901   0.06007   0.07214   0.07322   0.11368
     Eigenvalues ---    0.11628   0.11762   0.13858   0.14223   0.14437
     Eigenvalues ---    0.16022   0.16636   0.16881   0.17094   0.17788
     Eigenvalues ---    0.19497   0.21886   0.23301   0.23833   0.24972
     Eigenvalues ---    0.26081   0.28021   0.29267   0.31030   0.31846
     Eigenvalues ---    0.33047   0.33112   0.33265   0.33588   0.33801
     Eigenvalues ---    0.34832   0.35012   0.35366   0.35598   0.35789
     Eigenvalues ---    0.36229   0.36746   0.36965   0.38211   0.38565
     Eigenvalues ---    0.42400   0.46109   0.47508   0.50406   0.52731
     Eigenvalues ---    0.57875   0.77689   1.22507   2.40424
 Eigenvectors required to have negative eigenvalues:
                          D15       D5        D19       D11       A5
   1                    0.46204  -0.45180  -0.24131   0.24128   0.23049
                          A10       D4        D16       R2        R15
   1                    0.22705  -0.21402  -0.21235  -0.20213  -0.19596
 RFO step:  Lambda0=1.226284155D-06 Lambda=-2.47287507D-05.
 Linear search not attempted -- option 19 set.
 Variable       Old X    -DE/DX   Delta X   Delta X   Delta X     New X
                                 (Linear)    (Quad)   (Total)
    R2        2.62968   0.00005   0.00000  -0.00013  -0.00013   2.62955
    R3        2.88038  -0.00013   0.00000   0.00051   0.00051   2.88089
    R4        2.04900   0.00009   0.00000   0.00032   0.00032   2.04932
    R5        2.90929   0.00026   0.00000   0.00047   0.00047   2.90977
    R6        2.60068  -0.00006   0.00000  -0.00029  -0.00029   2.60038
    R7        2.05518   0.00029   0.00000   0.00080   0.00080   2.05598
    R8        2.05991  -0.00023   0.00000  -0.00075  -0.00075   2.05916
    R9        2.06055  -0.00024   0.00000  -0.00041  -0.00041   2.06014
   R10        2.88021   0.00051   0.00000   0.00012   0.00012   2.88033
   R11        2.04039  -0.00009   0.00000   0.00014   0.00014   2.04053
   R12        2.04437   0.00005   0.00000   0.00013   0.00013   2.04451
   R13        2.06157  -0.00015   0.00000  -0.00032  -0.00032   2.06125
   R14        2.06098  -0.00013   0.00000  -0.00061  -0.00061   2.06037
   R15        2.63029   0.00033   0.00000  -0.00003  -0.00003   2.63026
   R16        2.04983   0.00023   0.00000   0.00061   0.00061   2.05043
   R17        2.60521   0.00038   0.00000   0.00181   0.00181   2.60703
   R18        2.05723   0.00059   0.00000   0.00176   0.00176   2.05899
   R19        2.03965  -0.00010   0.00000  -0.00038  -0.00038   2.03926
   R20        2.04538   0.00022   0.00000   0.00077   0.00077   2.04615
    A3        2.16403  -0.00054   0.00000   0.00069   0.00069   2.16472
    A4        2.03951  -0.00006   0.00000  -0.00175  -0.00175   2.03776
    A5        1.78354  -0.00020   0.00000  -0.00005  -0.00005   1.78349
    A6        2.17640  -0.00010   0.00000  -0.00008  -0.00008   2.17632
    A7        2.03242   0.00006   0.00000   0.00059   0.00059   2.03301
    A8        1.93060   0.00016   0.00000  -0.00175  -0.00175   1.92885
    A9        1.95452   0.00021   0.00000   0.00237   0.00237   1.95688
   A10        1.78413   0.00072   0.00000  -0.00060  -0.00060   1.78353
   A11        2.11476   0.00005   0.00000  -0.00105  -0.00105   2.11372
   A12        2.09783   0.00007   0.00000   0.00051   0.00051   2.09833
   A13        1.96739  -0.00013   0.00000   0.00143   0.00143   1.96882
   A14        1.96517  -0.00005   0.00000  -0.00226  -0.00226   1.96291
   A15        2.16549   0.00124   0.00000   0.00134   0.00134   2.16683
   A16        2.03127   0.00003   0.00000  -0.00057  -0.00057   2.03070
   A17        2.17925   0.00067   0.00000   0.00058   0.00058   2.17983
   A18        2.02759  -0.00002   0.00000  -0.00112  -0.00112   2.02647
   A19        2.11815   0.00013   0.00000   0.00064   0.00064   2.11879
   A20        2.09638   0.00011   0.00000  -0.00082  -0.00082   2.09556
    D4       -2.80003   0.00007   0.00000   0.00467   0.00467  -2.79535
    D5        1.71786   0.00095   0.00000  -0.02065  -0.02065   1.69721
    D6       -0.34200   0.00046   0.00000  -0.00691  -0.00691  -0.34891
    D7       -2.88976  -0.00021   0.00000  -0.00277  -0.00277  -2.89254
    D8        2.09405   0.00023   0.00000  -0.00282  -0.00282   2.09123
    D9       -2.11633  -0.00023   0.00000  -0.00346  -0.00346  -2.11979
   D10        0.04333   0.00117   0.00000   0.02835   0.02835   0.07168
   D11        0.44427   0.00002   0.00000  -0.00369  -0.00369   0.44058
   D12        2.76938  -0.00026   0.00000  -0.00488  -0.00488   2.76450
   D13        2.08316   0.00018   0.00000   0.00408   0.00408   2.08724
   D14       -2.09343  -0.00017   0.00000   0.00250   0.00250  -2.09093
   D15       -1.77718  -0.00022   0.00000  -0.01992  -0.01992  -1.79711
   D16       -2.82275  -0.00004   0.00000  -0.00582  -0.00582  -2.82857
   D17        0.32560   0.00006   0.00000  -0.00451  -0.00451   0.32110
   D18        2.86486  -0.00029   0.00000  -0.00609  -0.00609   2.85877
   D19       -0.46930   0.00002   0.00000  -0.01049  -0.01049  -0.47979
   D20       -2.77550   0.00006   0.00000   0.00431   0.00431  -2.77119
         Item               Value     Threshold  Converged?
 Maximum Force            0.001240     0.000450     NO 
 RMS     Force            0.000365     0.000300     NO 
 Maximum Displacement     0.028353     0.001800     NO 
 RMS     Displacement     0.006148     0.001200     NO 
 Predicted change in Energy=-1.177641D-05
 GradGradGradGradGradGradGradGradGradGradGradGradGradGradGradGradGradGrad

 ---------------------------------------------------------------------------------------------------
                            Z-MATRIX (ANGSTROMS AND DEGREES)
   CD    Cent   Atom    N1       Length/X        N2       Alpha/Y        N3        Beta/Z          J
 ---------------------------------------------------------------------------------------------------
      1      1  C 
      2      2  C        1   1.391498(     1)
      3      3  C        1   1.524504(     2)      2  124.029(    20)
      4      4  H        1   1.084453(     3)      2  116.755(    21)      3 -160.162(    38)      0
      5      5  C        3   1.539782(     4)      1  102.186(    22)      2   97.243(    39)      0
      6      6  C        2   1.376063(     5)      1  124.694(    23)      3  -19.991(    40)      0
      7      7  H        2   1.087980(     6)      1  116.483(    24)      6 -165.730(    41)      0
      8      8  H        3   1.089663(     7)      1  110.515(    25)      5  119.818(    42)      0
      9      9  H        3   1.090181(     8)      1  112.121(    26)      5 -121.455(    43)      0
     10     10  C        5   1.524207(     9)      3  102.189(    27)      1    4.107(    44)      0
     11     11  H        6   1.079803(    10)      2  121.107(    28)      1   25.243(    45)      0
     12     12  H        6   1.081906(    11)      2  120.226(    29)     11  158.394(    46)      0
     13     13  H        5   1.090767(    12)      3  112.805(    30)     10  119.590(    47)      0
     14     14  H        5   1.090300(    13)      3  112.466(    31)     10 -119.802(    48)      0
     15     15  C       10   1.391875(    14)      5  124.150(    32)      3 -102.967(    49)      0
     16     16  H       10   1.085043(    15)      5  116.351(    33)     15 -162.065(    50)      0
     17     17  C       15   1.379580(    16)     10  124.895(    34)      5   18.397(    51)      0
     18     18  H       15   1.089572(    17)     10  116.108(    35)     17  163.795(    52)      0
     19     19  H       17   1.079131(    18)     15  121.398(    36)     10  -27.490(    53)      0
     20     20  H       17   1.082774(    19)     15  120.067(    37)     19 -158.778(    54)      0
 ---------------------------------------------------------------------------------------------------
                         Z-Matrix orientation:                         
 ---------------------------------------------------------------------
 Center     Atomic      Atomic             Coordinates (Angstroms)
 Number     Number       Type             X           Y           Z
 ---------------------------------------------------------------------
      1          6           0        0.000000    0.000000    0.000000
      2          6           0        0.000000    0.000000    1.391498
      3          6           0        1.263439    0.000000   -0.853132
      4          1           0       -0.910883    0.328621   -0.488199
      5          6           0        1.426624   -1.493076   -1.192282
      6          6           0        1.063231   -0.386798    2.174746
      7          1           0       -0.968964    0.097079    1.876664
      8          1           0        1.124173    0.615056   -1.741769
      9          1           0        2.119119    0.414190   -0.319510
     10          6           0        0.175571   -2.102861   -0.570803
     11          1           0        2.076373   -0.335812    1.804720
     12          1           0        0.964749   -0.414083    3.251815
     13          1           0        1.467231   -1.680743   -2.266016
     14          1           0        2.335199   -1.920073   -0.766934
     15          6           0        0.163323   -2.807507    0.629464
     16          1           0       -0.674803   -2.235459   -1.231560
     17          6           0        1.155081   -2.752834    1.586891
     18          1           0       -0.798469   -3.218991    0.934105
     19          1           0        2.177556   -2.528140    1.325011
     20          1           0        1.019935   -3.253938    2.537170
 ---------------------------------------------------------------------
                    Distance matrix (angstroms):
                    1          2          3          4          5
     1  C    0.000000
     2  C    1.391498   0.000000
     3  C    1.524504   2.575780   0.000000
     4  H    1.084453   2.114464   2.229090   0.000000
     5  C    2.384548   3.307635   1.539782   3.046022   0.000000
     6  C    2.451447   1.376063   3.059042   3.391198   3.562693
     7  H    2.114280   1.087980   3.527723   2.376880   4.205456
     8  H    2.162364   3.385177   1.089663   2.407268   2.199462
     9  H    2.182729   2.754953   1.090181   3.035900   2.208833
    10  C    2.186015   2.881574   2.384363   2.664452   1.524207
    11  H    2.771481   2.143559   2.799608   3.823957   3.277720
    12  H    3.417090   2.136115   4.136577   4.249390   4.596471
    13  H    3.180014   4.284282   2.205146   3.585192   1.090767
    14  H    3.118977   3.714655   2.200631   3.958707   1.090300
    15  C    2.881838   2.913669   3.360125   3.498340   2.577288
    16  H    2.639958   3.511847   2.982829   2.680079   2.229052
    17  C    3.380907   2.991736   3.680156   4.250831   3.063417
    18  H    3.445578   3.347935   4.219903   3.823760   3.528646
    19  H    3.590111   3.337313   3.459972   4.581186   2.823476
    20  H    4.250366   3.597352   4.705481   5.071059   4.144254
                    6          7          8          9         10
     6  C    0.000000
     7  H    2.110167   0.000000
     8  H    4.043082   4.212194   0.000000
     9  H    2.824498   3.802629   1.747308   0.000000
    10  C    3.357209   3.484219   3.107745   3.189995   0.000000
    11  H    1.079803   3.076791   3.793207   2.253149   3.518325
    12  H    1.081906   2.427256   5.101022   3.843562   4.252902
    13  H    4.643046   5.124206   2.379751   2.933017   2.172629
    14  H    3.552790   4.687750   2.973846   2.386559   2.176206
    15  C    3.009579   3.357707   4.273162   3.886518   1.391875
    16  H    4.247497   3.897219   3.409115   3.957079   1.085043
    17  C    2.439700   3.566165   4.735358   3.820180   2.457142
    18  H    3.609216   3.451638   5.055371   4.825337   2.111693
    19  H    2.559124   4.134813   4.516020   3.371226   2.789788
    20  H    2.890280   3.952379   5.769688   4.777446   3.420150
                   11         12         13         14         15
    11  H    0.000000
    12  H    1.826450   0.000000
    13  H    4.330217   5.683606   0.000000
    14  H    3.031547   4.505162   1.748683   0.000000
    15  C    3.339201   3.639710   3.369507   2.730295   0.000000
    16  H    4.516262   5.109422   2.442564   3.061937   2.119694
    17  C    2.595808   2.877143   4.011447   2.761642   1.379580
    18  H    4.163581   4.043294   4.211933   3.794812   1.089572
    19  H    2.246477   3.106881   3.757408   2.184223   2.149179
    20  H    3.188730   2.928914   5.074013   3.798187   2.138324
                   16         17         18         19         20
    16  H    0.000000
    17  C    3.399974   0.000000
    18  H    2.381750   2.111821   0.000000
    19  H    3.841571   1.079131   3.080066   0.000000
    20  H    4.255909   1.082774   2.424383   1.826527   0.000000
 Symmetry turned off by external request.
 Stoichiometry    C8H12
 Framework group  C1[X(C8H12)]
 Deg. of freedom    54
 Full point group                 C1      NOp   1
 Rotational constants (GHZ):           2.4967700           2.3018459           1.5808540
 Standard basis: def2TZVP (5D, 7F)
 The following finite field(s) will be applied:
 An electric field of             -0.0073 -0.0059  0.0034
   320 basis functions,   504 primitive gaussians,   360 cartesian basis functions
    30 alpha electrons       30 beta electrons
       nuclear repulsion energy       368.0608333898 Hartrees.
 NAtoms=   20 NActive=   20 NUniq=   20 SFac= 1.00D+00 NAtFMM=   60 NAOKFM=F Big=F
 Integral buffers will be    131072 words long.
 Raffenetti 2 integral format.
 Two-electron integral symmetry is turned off.
 One-electron integrals computed using PRISM.
   1 Symmetry operations used in ECPInt.
 ECPInt:  NShTT=    9316 NPrTT=   27240 LenC2=    9237 LenP2D=   22124.
 LDataN:  DoStor=T MaxTD1= 6 Len=  172
 NBasis=   320 RedAO= T EigKep=  2.69D-05  NBF=   320
 NBsUse=   320 1.00D-06 EigRej= -1.00D+00 NBFU=   320
 The nuclear repulsion energy is now       368.4386473642 hartrees.
 Initial guess from the checkpoint file:  "checkpoint.chk"
 B after Tr=     0.010179    0.001690   -0.002905
         Rot=    0.999985    0.000407    0.004278    0.003460 Ang=   0.63 deg.
 ExpMin= 9.52D-02 ExpMax= 1.36D+04 ExpMxC= 4.63D+02 IAcc=2 IRadAn=         4 AccDes= 0.00D+00
 Harris functional with IExCor=  402 and IRadAn=       4 diagonalized for initial guess.
 HarFok:  IExCor=  402 AccDes= 0.00D+00 IRadAn=         4 IDoV= 1 UseB2=F ITyADJ=14
 ICtDFT=  3500011 ScaDFX=  1.000000  1.000000  1.000000  1.000000
 FoFCou: FMM=F IPFlag=           0 FMFlag=      100000 FMFlg1=           0
         NFxFlg=           0 DoJE=T BraDBF=F KetDBF=T FulRan=T
         wScrn=  0.000000 ICntrl=       500 IOpCl=  0 I1Cent=   200000004 NGrid=           0
         NMat0=    1 NMatS0=      1 NMatT0=    0 NMatD0=    1 NMtDS0=    0 NMtDT0=    0
 Symmetry not used in FoFCou.
 Requested convergence on RMS density matrix=1.00D-08 within 128 cycles.
 Requested convergence on MAX density matrix=1.00D-06.
 Requested convergence on             energy=1.00D-06.
 No special actions if energy rises.
 Integral accuracy reduced to 1.0D-05 until final iterations.
 Initial convergence to 1.0D-05 achieved.  Increase integral accuracy.
 SCF Done:  E(RB3LYP) =  -312.084987985     A.U. after   10 cycles
            NFock= 10  Conv=0.80D-08     -V/T= 2.0056
   1 Symmetry operations used in ECPInt.
 ECPInt:  NShTT=    9316 NPrTT=   27240 LenC2=    9237 LenP2D=   22124.
 LDataN:  DoStor=T MaxTD1= 7 Len=  274
 Calling FoFJK, ICntrl=      2127 FMM=F ISym2X=0 I1Cent= 0 IOpClX= 0 NMat=1 NMatS=1 NMatT=0.
 -------------------------------------------------------------------
 Center     Atomic                   Forces (Hartrees/Bohr)
 Number     Number              X              Y              Z
 -------------------------------------------------------------------
      1        6           0.000772621    0.001672437   -0.000031834
      2        6          -0.000758078   -0.000900122    0.000020256
      3        6           0.000006009   -0.000876787   -0.000001275
      4        1          -0.000001203   -0.000001405   -0.000003239
      5        6          -0.000016404    0.000026882    0.000005948
      6        6          -0.000006429    0.000025589   -0.000002392
      7        1           0.000000585    0.000003239    0.000000916
      8        1           0.000000850    0.000000729   -0.000005042
      9        1          -0.000000082   -0.000002520   -0.000001667
     10        6          -0.000000293    0.000021052   -0.000014801
     11        1           0.000001414   -0.000013742    0.000001221
     12        1          -0.000002030   -0.000009606    0.000001093
     13        1          -0.000001679    0.000003563   -0.000004301
     14        1           0.000003585    0.000000309   -0.000001712
     15        6           0.000007495    0.000042053    0.000057061
     16        1          -0.000000354    0.000002253   -0.000002932
     17        6          -0.000001946   -0.000015405   -0.000022130
     18        1          -0.000000224   -0.000004824   -0.000000906
     19        1          -0.000001808    0.000018457    0.000000287
     20        1          -0.000002029    0.000007848    0.000005450
 -------------------------------------------------------------------
 Cartesian Forces:  Max     0.001672437 RMS     0.000304362
 -----------------------------------------------------------------------------------------------
                       Internal Coordinate Forces (Hartree/Bohr or radian)
  Cent   Atom   N1       Length/X         N2         Alpha/Y        N3         Beta/Z          J
 -----------------------------------------------------------------------------------------------
      1  C 
      2  C        1   0.000021(     1)
      3  C        1  -0.000014(     2)      2   0.000059(    20)
      4  H        1   0.000002(     3)      2   0.000005(    21)      3  -0.000003(    38)     0
      5  C        3  -0.000105(     4)      1  -0.000260(    22)      2  -0.000171(    39)     0
      6  C        2  -0.000006(     5)      1   0.000014(    23)      3  -0.000031(    40)     0
      7  H        2   0.000000(     6)      1   0.000002(    24)      6  -0.000006(    41)     0
      8  H        3   0.000004(     7)      1   0.000004(    25)      5  -0.000003(    42)     0
      9  H        3  -0.000002(     8)      1   0.000003(    26)      5   0.000003(    43)     0
     10  C        5  -0.000020(     9)      3  -0.000249(    27)      1  -0.000084(    44)     0
     11  H        6   0.000000(    10)      2   0.000013(    28)      1  -0.000004(    45)     0
     12  H        6   0.000002(    11)      2   0.000002(    29)     11   0.000017(    46)     0
     13  H        5   0.000004(    12)      3  -0.000009(    30)     10  -0.000003(    47)     0
     14  H        5   0.000002(    13)      3  -0.000001(    31)     10  -0.000006(    48)     0
     15  C       10   0.000010(    14)      5  -0.000081(    32)      3   0.000171(    49)     0
     16  H       10   0.000002(    15)      5  -0.000006(    33)     15  -0.000003(    50)     0
     17  C       15  -0.000015(    16)     10  -0.000052(    34)      5   0.000045(    51)     0
     18  H       15   0.000002(    17)     10   0.000002(    35)     17   0.000008(    52)     0
     19  H       17   0.000002(    18)     15  -0.000003(    36)     10   0.000015(    53)     0
     20  H       17   0.000001(    19)     15   0.000005(    37)     19  -0.000017(    54)     0
 -----------------------------------------------------------------------------------------------
 Internal  Forces:  Max     0.000259521 RMS     0.000064526

 GradGradGradGradGradGradGradGradGradGradGradGradGradGradGradGradGradGrad
 Berny optimization.
 Search for a saddle point.
 Step number   2 out of a maximum of   64
 All quantities printed in internal units (Hartrees-Bohrs-Radians)
 Swapping is turned off.
 Update second derivatives using D2CorN and points    1    2
 ITU=  0  0
     Eigenvalues ---   -0.14597   0.00615   0.01457   0.02245   0.03569
     Eigenvalues ---    0.05902   0.06009   0.07215   0.07322   0.11368
     Eigenvalues ---    0.11628   0.11763   0.13859   0.14223   0.14439
     Eigenvalues ---    0.16022   0.16635   0.16882   0.17094   0.17788
     Eigenvalues ---    0.19497   0.21886   0.23301   0.23833   0.24973
     Eigenvalues ---    0.26081   0.28021   0.29267   0.31030   0.31846
     Eigenvalues ---    0.33047   0.33112   0.33265   0.33588   0.33801
     Eigenvalues ---    0.34832   0.35012   0.35365   0.35598   0.35789
     Eigenvalues ---    0.36230   0.36746   0.36965   0.38211   0.38565
     Eigenvalues ---    0.42400   0.46109   0.47507   0.50407   0.52731
     Eigenvalues ---    0.57875   0.77691   1.22515   2.40433
 Eigenvectors required to have negative eigenvalues:
                          D15       D5        D19       D11       A5
   1                    0.46174  -0.45221  -0.24144   0.24123   0.23041
                          A10       D4        D16       R2        R15
   1                    0.22698  -0.21395  -0.21241  -0.20210  -0.19593
 RFO step:  Lambda0=1.151801127D-09 Lambda=-4.82845009D-07.
 Linear search not attempted -- option 19 set.
 Variable       Old X    -DE/DX   Delta X   Delta X   Delta X     New X
                                 (Linear)    (Quad)   (Total)
    R2        2.62955   0.00002   0.00000   0.00001   0.00001   2.62956
    R3        2.88089  -0.00001   0.00000  -0.00013  -0.00013   2.88077
    R4        2.04932   0.00000   0.00000   0.00000   0.00000   2.04932
    R5        2.90977  -0.00011   0.00000  -0.00007  -0.00007   2.90969
    R6        2.60038  -0.00001   0.00000   0.00001   0.00001   2.60039
    R7        2.05598   0.00000   0.00000   0.00000   0.00000   2.05599
    R8        2.05916   0.00000   0.00000   0.00002   0.00002   2.05919
    R9        2.06014  -0.00000   0.00000  -0.00005  -0.00005   2.06009
   R10        2.88033  -0.00002   0.00000   0.00011   0.00011   2.88045
   R11        2.04053   0.00000   0.00000  -0.00005  -0.00005   2.04049
   R12        2.04451   0.00000   0.00000   0.00001   0.00001   2.04452
   R13        2.06125   0.00000   0.00000  -0.00001  -0.00001   2.06125
   R14        2.06037   0.00000   0.00000   0.00007   0.00007   2.06043
   R15        2.63026   0.00001   0.00000   0.00009   0.00009   2.63035
   R16        2.05043   0.00000   0.00000   0.00001   0.00001   2.05045
   R17        2.60703  -0.00002   0.00000  -0.00014  -0.00014   2.60688
   R18        2.05899   0.00000   0.00000   0.00001   0.00001   2.05900
   R19        2.03926   0.00000   0.00000   0.00004   0.00004   2.03930
   R20        2.04615   0.00000   0.00000  -0.00003  -0.00003   2.04612
    A3        2.16472   0.00006   0.00000  -0.00001  -0.00001   2.16470
    A4        2.03776   0.00001   0.00000   0.00019   0.00019   2.03796
    A5        1.78349  -0.00026   0.00000  -0.00025  -0.00025   1.78324
    A6        2.17632   0.00001   0.00000  -0.00000  -0.00000   2.17632
    A7        2.03301   0.00000   0.00000  -0.00001  -0.00001   2.03300
    A8        1.92885   0.00000   0.00000   0.00041   0.00041   1.92926
    A9        1.95688   0.00000   0.00000  -0.00019  -0.00019   1.95669
   A10        1.78353  -0.00025   0.00000   0.00023   0.00023   1.78377
   A11        2.11372   0.00001   0.00000   0.00019   0.00019   2.11390
   A12        2.09833   0.00000   0.00000  -0.00009  -0.00009   2.09824
   A13        1.96882  -0.00001   0.00000  -0.00039  -0.00039   1.96843
   A14        1.96291  -0.00000   0.00000   0.00031   0.00031   1.96322
   A15        2.16683  -0.00008   0.00000   0.00002   0.00002   2.16686
   A16        2.03070  -0.00001   0.00000   0.00001   0.00001   2.03072
   A17        2.17983  -0.00005   0.00000   0.00002   0.00002   2.17984
   A18        2.02647   0.00000   0.00000   0.00003   0.00003   2.02650
   A19        2.11879  -0.00000   0.00000  -0.00013  -0.00013   2.11866
   A20        2.09556   0.00000   0.00000   0.00020   0.00020   2.09576
    D4       -2.79535  -0.00000   0.00000  -0.00061  -0.00061  -2.79597
    D5        1.69721  -0.00017   0.00000   0.00343   0.00343   1.70063
    D6       -0.34891  -0.00003   0.00000   0.00132   0.00132  -0.34759
    D7       -2.89254  -0.00001   0.00000  -0.00016  -0.00016  -2.89270
    D8        2.09123  -0.00000   0.00000   0.00047   0.00047   2.09170
    D9       -2.11979   0.00000   0.00000   0.00054   0.00054  -2.11925
   D10        0.07168  -0.00008   0.00000  -0.00472  -0.00472   0.06696
   D11        0.44058  -0.00000   0.00000   0.00054   0.00054   0.44112
   D12        2.76450   0.00002   0.00000   0.00018   0.00018   2.76468
   D13        2.08724  -0.00000   0.00000  -0.00057  -0.00057   2.08668
   D14       -2.09093  -0.00001   0.00000  -0.00059  -0.00059  -2.09152
   D15       -1.79711   0.00017   0.00000   0.00358   0.00358  -1.79352
   D16       -2.82857  -0.00000   0.00000   0.00063   0.00063  -2.82795
   D17        0.32110   0.00005   0.00000   0.00092   0.00092   0.32202
   D18        2.85877   0.00001   0.00000   0.00021   0.00021   2.85898
   D19       -0.47979   0.00002   0.00000   0.00122   0.00122  -0.47856
   D20       -2.77119  -0.00002   0.00000  -0.00053  -0.00053  -2.77173
         Item               Value     Threshold  Converged?
 Maximum Force            0.000260     0.000450     YES
 RMS     Force            0.000065     0.000300     YES
 Maximum Displacement     0.004719     0.001800     NO 
 RMS     Displacement     0.001003     0.001200     YES
 Predicted change in Energy=-2.408466D-07
 GradGradGradGradGradGradGradGradGradGradGradGradGradGradGradGradGradGrad

 ---------------------------------------------------------------------------------------------------
                            Z-MATRIX (ANGSTROMS AND DEGREES)
   CD    Cent   Atom    N1       Length/X        N2       Alpha/Y        N3        Beta/Z          J
 ---------------------------------------------------------------------------------------------------
      1      1  C 
      2      2  C        1   1.391506(     1)
      3      3  C        1   1.524436(     2)      2  124.028(    20)
      4      4  H        1   1.084455(     3)      2  116.766(    21)      3 -160.197(    38)      0
      5      5  C        3   1.539743(     4)      1  102.172(    22)      2   97.439(    39)      0
      6      6  C        2   1.376067(     5)      1  124.694(    23)      3  -19.916(    40)      0
      7      7  H        2   1.087981(     6)      1  116.482(    24)      6 -165.740(    41)      0
      8      8  H        3   1.089675(     7)      1  110.539(    25)      5  119.846(    42)      0
      9      9  H        3   1.090154(     8)      1  112.110(    26)      5 -121.424(    43)      0
     10     10  C        5   1.524267(     9)      3  102.202(    27)      1    3.837(    44)      0
     11     11  H        6   1.079779(    10)      2  121.118(    28)      1   25.274(    45)      0
     12     12  H        6   1.081914(    11)      2  120.220(    29)     11  158.404(    46)      0
     13     13  H        5   1.090764(    12)      3  112.783(    30)     10  119.558(    47)      0
     14     14  H        5   1.090334(    13)      3  112.484(    31)     10 -119.835(    48)      0
     15     15  C       10   1.391921(    14)      5  124.152(    32)      3 -102.761(    49)      0
     16     16  H       10   1.085050(    15)      5  116.351(    33)     15 -162.029(    50)      0
     17     17  C       15   1.379504(    16)     10  124.896(    34)      5   18.450(    51)      0
     18     18  H       15   1.089576(    17)     10  116.110(    35)     17  163.807(    52)      0
     19     19  H       17   1.079150(    18)     15  121.390(    36)     10  -27.420(    53)      0
     20     20  H       17   1.082760(    19)     15  120.078(    37)     19 -158.808(    54)      0
 ---------------------------------------------------------------------------------------------------
                         Z-Matrix orientation:                         
 ---------------------------------------------------------------------
 Center     Atomic      Atomic             Coordinates (Angstroms)
 Number     Number       Type             X           Y           Z
 ---------------------------------------------------------------------
      1          6           0        0.000000    0.000000    0.000000
      2          6           0        0.000000    0.000000    1.391506
      3          6           0        1.263391    0.000000   -0.853081
      4          1           0       -0.910998    0.328030   -0.488387
      5          6           0        1.423395   -1.492460   -1.196258
      6          6           0        1.063745   -0.385398    2.174753
      7          1           0       -0.969080    0.095961    1.876662
      8          1           0        1.125898    0.618140   -1.739867
      9          1           0        2.119841    0.410553   -0.317938
     10          6           0        0.174602   -2.102618   -0.570468
     11          1           0        2.076902   -0.332685    1.805084
     12          1           0        0.965002   -0.413424    3.251787
     13          1           0        1.458256   -1.677443   -2.270656
     14          1           0        2.333698   -1.921541   -0.776655
     15          6           0        0.166492   -2.806558    0.630302
     16          1           0       -0.677572   -2.236686   -1.228616
     17          6           0        1.160635   -2.749952    1.585030
     18          1           0       -0.793873   -3.219358    0.937663
     19          1           0        2.181887   -2.522914    1.320333
     20          1           0        1.029133   -3.251122    2.535770
 ---------------------------------------------------------------------
                    Distance matrix (angstroms):
                    1          2          3          4          5
     1  C    0.000000
     2  C    1.391506   0.000000
     3  C    1.524436   2.575718   0.000000
     4  H    1.084455   2.114596   2.229030   0.000000
     5  C    2.384224   3.309080   1.539743   3.043790   0.000000
     6  C    2.451455   1.376067   3.058785   3.391298   3.566321
     7  H    2.114281   1.087981   3.527695   2.377117   4.205931
     8  H    2.162610   3.384559   1.089675   2.408176   2.199693
     9  H    2.182513   2.753993   1.090154   3.036749   2.208606
    10  C    2.185617   2.881116   2.384604   2.663327   1.524267
    11  H    2.771738   2.143653   2.799699   3.824147   3.283322
    12  H    3.417055   2.136070   4.136410   4.249474   4.599951
    13  H    3.177453   4.283895   2.204838   3.579354   1.090764
    14  H    3.121163   3.720132   2.200845   3.958752   1.090334
    15  C    2.881279   2.912717   3.358628   3.498298   2.577398
    16  H    2.640334   3.510969   2.985151   2.679588   2.229121
    17  C    3.379591   2.991114   3.676572   4.250259   3.063641
    18  H    3.445826   3.346711   4.219404   3.825088   3.528750
    19  H    3.587339   3.336284   3.454339   4.578786   2.823185
    20  H    4.249592   3.596977   4.702018   5.071484   4.144438
                    6          7          8          9         10
     6  C    0.000000
     7  H    2.110199   0.000000
     8  H    4.041683   4.211993   0.000000
     9  H    2.821770   3.802193   1.747254   0.000000
    10  C    3.357924   3.482844   3.110464   3.188065   0.000000
    11  H    1.079779   3.076828   3.791458   2.249771   3.520604
    12  H    1.081914   2.427162   5.099669   3.841293   4.252968
    13  H    4.646147   5.122224   2.379475   2.934371   2.172368
    14  H    3.561365   4.692414   2.972632   2.386382   2.176465
    15  C    3.008722   3.356718   4.273958   3.881306   1.391921
    16  H    4.247631   3.894736   3.415247   3.957616   1.085050
    17  C    2.438909   3.566505   4.732885   3.811845   2.457127
    18  H    3.607279   3.450182   5.057775   4.821050   2.111756
    19  H    2.559150   4.134803   4.510672   3.360508   2.789439
    20  H    2.888581   3.953510   5.767289   4.768769   3.420233
                   11         12         13         14         15
    11  H    0.000000
    12  H    1.826415   0.000000
    13  H    4.336215   5.686688   0.000000
    14  H    3.042331   4.513988   1.748721   0.000000
    15  C    3.339135   3.638254   3.370329   2.731220   0.000000
    16  H    4.518371   5.108458   2.441385   3.061263   2.119617
    17  C    2.594446   2.876755   4.013125   2.764036   1.379504
    18  H    4.162529   4.040059   4.212233   3.795381   1.089576
    19  H    2.245686   3.108258   3.759477   2.186791   2.149049
    20  H    3.185748   2.927341   5.075662   3.800241   2.138362
                   16         17         18         19         20
    16  H    0.000000
    17  C    3.399861   0.000000
    18  H    2.381583   2.111760   0.000000
    19  H    3.841298   1.079150   3.080035   0.000000
    20  H    4.255881   1.082760   2.424521   1.826585   0.000000
 Symmetry turned off by external request.
 Stoichiometry    C8H12
 Framework group  C1[X(C8H12)]
 Deg. of freedom    54
 Full point group                 C1      NOp   1
 Rotational constants (GHZ):           2.4970498           2.3021804           1.5811077
 Standard basis: def2TZVP (5D, 7F)
 The following finite field(s) will be applied:
 An electric field of             -0.0073 -0.0059  0.0034
   320 basis functions,   504 primitive gaussians,   360 cartesian basis functions
    30 alpha electrons       30 beta electrons
       nuclear repulsion energy       368.0775282690 Hartrees.
 NAtoms=   20 NActive=   20 NUniq=   20 SFac= 1.00D+00 NAtFMM=   60 NAOKFM=F Big=F
 Integral buffers will be    131072 words long.
 Raffenetti 2 integral format.
 Two-electron integral symmetry is turned off.
 One-electron integrals computed using PRISM.
   1 Symmetry operations used in ECPInt.
 ECPInt:  NShTT=    9316 NPrTT=   27240 LenC2=    9238 LenP2D=   22126.
 LDataN:  DoStor=T MaxTD1= 6 Len=  172
 NBasis=   320 RedAO= T EigKep=  2.67D-05  NBF=   320
 NBsUse=   320 1.00D-06 EigRej= -1.00D+00 NBFU=   320
 The nuclear repulsion energy is now       368.4540574829 hartrees.
 Initial guess from the checkpoint file:  "checkpoint.chk"
 B after Tr=    -0.001849    0.000265    0.000516
         Rot=    1.000000    0.000036   -0.000717   -0.000437 Ang=   0.10 deg.
 Requested convergence on RMS density matrix=1.00D-08 within 128 cycles.
 Requested convergence on MAX density matrix=1.00D-06.
 Requested convergence on             energy=1.00D-06.
 No special actions if energy rises.
 SCF Done:  E(RB3LYP) =  -312.084988177     A.U. after    7 cycles
            NFock=  7  Conv=0.97D-08     -V/T= 2.0056
   1 Symmetry operations used in ECPInt.
 ECPInt:  NShTT=    9316 NPrTT=   27240 LenC2=    9238 LenP2D=   22126.
 LDataN:  DoStor=T MaxTD1= 7 Len=  274
 Calling FoFJK, ICntrl=      2127 FMM=F ISym2X=0 I1Cent= 0 IOpClX= 0 NMat=1 NMatS=1 NMatT=0.
 -------------------------------------------------------------------
 Center     Atomic                   Forces (Hartrees/Bohr)
 Number     Number              X              Y              Z
 -------------------------------------------------------------------
      1        6           0.000746428    0.001662511    0.000007029
      2        6          -0.000748868   -0.000808116   -0.000004296
      3        6          -0.000001926   -0.000831194    0.000001140
      4        1           0.000000146    0.000000065    0.000000735
      5        6           0.000003968   -0.000005473   -0.000002106
      6        6           0.000000712   -0.000004291    0.000000823
      7        1          -0.000000180   -0.000000899   -0.000000222
      8        1          -0.000000107    0.000000217    0.000001089
      9        1           0.000000021    0.000000299    0.000000323
     10        6           0.000000076   -0.000005057    0.000002390
     11        1          -0.000000247    0.000002246   -0.000000475
     12        1           0.000000254    0.000001791   -0.000000262
     13        1           0.000000312   -0.000000814    0.000000790
     14        1          -0.000000596   -0.000000228    0.000000658
     15        6          -0.000002456   -0.000007366   -0.000011038
     16        1           0.000000193   -0.000000816    0.000000529
     17        6           0.000001735    0.000001019    0.000003940
     18        1          -0.000000169    0.000000502    0.000000023
     19        1           0.000000443   -0.000003211   -0.000000189
     20        1           0.000000260   -0.000001183   -0.000000882
 -------------------------------------------------------------------
 Cartesian Forces:  Max     0.001662511 RMS     0.000295134
 -----------------------------------------------------------------------------------------------
                       Internal Coordinate Forces (Hartree/Bohr or radian)
  Cent   Atom   N1       Length/X         N2         Alpha/Y        N3         Beta/Z          J
 -----------------------------------------------------------------------------------------------
      1  C 
      2  C        1  -0.000004(     1)
      3  C        1   0.000003(     2)      2  -0.000011(    20)
      4  H        1  -0.000000(     3)      2  -0.000001(    21)      3   0.000000(    38)     0
      5  C        3   0.000024(     4)      1   0.000062(    22)      2   0.000039(    39)     0
      6  C        2   0.000001(     5)      1  -0.000002(    23)      3   0.000006(    40)     0
      7  H        2  -0.000000(     6)      1  -0.000000(    24)      6   0.000002(    41)     0
      8  H        3  -0.000001(     7)      1  -0.000001(    25)      5   0.000001(    42)     0
      9  H        3   0.000000(     8)      1  -0.000001(    26)      5  -0.000000(    43)     0
     10  C        5   0.000004(     9)      3   0.000057(    27)      1   0.000016(    44)     0
     11  H        6   0.000000(    10)      2  -0.000003(    28)      1   0.000000(    45)     0
     12  H        6  -0.000000(    11)      2  -0.000001(    29)     11  -0.000003(    46)     0
     13  H        5  -0.000001(    12)      3   0.000002(    30)     10   0.000000(    47)     0
     14  H        5  -0.000000(    13)      3   0.000000(    31)     10   0.000002(    48)     0
     15  C       10  -0.000002(    14)      5   0.000015(    32)      3  -0.000038(    49)     0
     16  H       10  -0.000000(    15)      5   0.000001(    33)     15   0.000001(    50)     0
     17  C       15   0.000004(    16)     10   0.000010(    34)      5  -0.000011(    51)     0
     18  H       15  -0.000000(    17)     10  -0.000000(    35)     17  -0.000001(    52)     0
     19  H       17  -0.000000(    18)     15   0.000000(    36)     10  -0.000003(    53)     0
     20  H       17  -0.000000(    19)     15  -0.000001(    37)     19   0.000003(    54)     0
 -----------------------------------------------------------------------------------------------
 Internal  Forces:  Max     0.000061824 RMS     0.000014565

 GradGradGradGradGradGradGradGradGradGradGradGradGradGradGradGradGradGrad
 Berny optimization.
 Search for a saddle point.
 Step number   3 out of a maximum of   64
 All quantities printed in internal units (Hartrees-Bohrs-Radians)
 Swapping is turned off.
 Update second derivatives using D2CorN and points    1    2    3
 ITU=  0  0  0
     Eigenvalues ---   -0.14599   0.00709   0.01460   0.02249   0.03576
     Eigenvalues ---    0.05902   0.06009   0.07215   0.07323   0.11368
     Eigenvalues ---    0.11628   0.11763   0.13862   0.14224   0.14441
     Eigenvalues ---    0.16022   0.16635   0.16882   0.17094   0.17788
     Eigenvalues ---    0.19498   0.21886   0.23301   0.23834   0.24973
     Eigenvalues ---    0.26081   0.28020   0.29267   0.31030   0.31846
     Eigenvalues ---    0.33047   0.33112   0.33265   0.33588   0.33801
     Eigenvalues ---    0.34832   0.35012   0.35365   0.35598   0.35789
     Eigenvalues ---    0.36230   0.36746   0.36965   0.38211   0.38565
     Eigenvalues ---    0.42400   0.46109   0.47508   0.50407   0.52731
     Eigenvalues ---    0.57875   0.77693   1.22521   2.40470
 Eigenvectors required to have negative eigenvalues:
                          D15       D5        D19       D11       A5
   1                    0.46107  -0.45294  -0.24169   0.24112   0.23037
                          A10       D4        D16       R2        R15
   1                    0.22689  -0.21382  -0.21253  -0.20208  -0.19592
 RFO step:  Lambda0=4.707922940D-11 Lambda=-1.51110874D-08.
 Linear search not attempted -- option 19 set.
 Variable       Old X    -DE/DX   Delta X   Delta X   Delta X     New X
                                 (Linear)    (Quad)   (Total)
    R2        2.62956  -0.00000   0.00000  -0.00001  -0.00001   2.62956
    R3        2.88077   0.00000   0.00000   0.00002   0.00002   2.88078
    R4        2.04932  -0.00000   0.00000  -0.00000  -0.00000   2.04932
    R5        2.90969   0.00002   0.00000   0.00002   0.00002   2.90971
    R6        2.60039   0.00000   0.00000   0.00000   0.00000   2.60039
    R7        2.05599  -0.00000   0.00000  -0.00000  -0.00000   2.05599
    R8        2.05919  -0.00000   0.00000  -0.00000  -0.00000   2.05918
    R9        2.06009   0.00000   0.00000   0.00001   0.00001   2.06010
   R10        2.88045   0.00000   0.00000  -0.00002  -0.00002   2.88043
   R11        2.04049   0.00000   0.00000   0.00001   0.00001   2.04049
   R12        2.04452  -0.00000   0.00000  -0.00000  -0.00000   2.04452
   R13        2.06125  -0.00000   0.00000   0.00000   0.00000   2.06125
   R14        2.06043  -0.00000   0.00000  -0.00001  -0.00001   2.06042
   R15        2.63035  -0.00000   0.00000  -0.00002  -0.00002   2.63033
   R16        2.05045  -0.00000   0.00000  -0.00000  -0.00000   2.05044
   R17        2.60688   0.00000   0.00000   0.00002   0.00002   2.60691
   R18        2.05900  -0.00000   0.00000  -0.00000  -0.00000   2.05900
   R19        2.03930  -0.00000   0.00000  -0.00001  -0.00001   2.03929
   R20        2.04612  -0.00000   0.00000   0.00000   0.00000   2.04612
    A3        2.16470  -0.00001   0.00000  -0.00001  -0.00001   2.16470
    A4        2.03796  -0.00000   0.00000  -0.00002  -0.00002   2.03793
    A5        1.78324   0.00006   0.00000   0.00005   0.00005   1.78329
    A6        2.17632  -0.00000   0.00000  -0.00000  -0.00000   2.17632
    A7        2.03300  -0.00000   0.00000   0.00000   0.00000   2.03301
    A8        1.92926  -0.00000   0.00000  -0.00006  -0.00006   1.92920
    A9        1.95669  -0.00000   0.00000   0.00002   0.00002   1.95672
   A10        1.78377   0.00006   0.00000  -0.00003  -0.00003   1.78374
   A11        2.11390  -0.00000   0.00000  -0.00003  -0.00003   2.11387
   A12        2.09824  -0.00000   0.00000   0.00001   0.00001   2.09826
   A13        1.96843   0.00000   0.00000   0.00006   0.00006   1.96849
   A14        1.96322   0.00000   0.00000  -0.00005  -0.00005   1.96317
   A15        2.16686   0.00001   0.00000   0.00000   0.00000   2.16686
   A16        2.03072   0.00000   0.00000   0.00000   0.00000   2.03072
   A17        2.17984   0.00001   0.00000   0.00000   0.00000   2.17985
   A18        2.02650  -0.00000   0.00000  -0.00000  -0.00000   2.02649
   A19        2.11866   0.00000   0.00000   0.00002   0.00002   2.11868
   A20        2.09576  -0.00000   0.00000  -0.00003  -0.00003   2.09573
    D4       -2.79597   0.00000   0.00000   0.00009   0.00009  -2.79588
    D5        1.70063   0.00004   0.00000  -0.00049  -0.00049   1.70015
    D6       -0.34759   0.00001   0.00000  -0.00021  -0.00021  -0.34780
    D7       -2.89270   0.00000   0.00000   0.00003   0.00003  -2.89267
    D8        2.09170   0.00000   0.00000  -0.00006  -0.00006   2.09164
    D9       -2.11925  -0.00000   0.00000  -0.00008  -0.00008  -2.11932
   D10        0.06696   0.00002   0.00000   0.00069   0.00069   0.06765
   D11        0.44112   0.00000   0.00000  -0.00008  -0.00008   0.44104
   D12        2.76468  -0.00000   0.00000  -0.00002  -0.00002   2.76466
   D13        2.08668   0.00000   0.00000   0.00009   0.00009   2.08676
   D14       -2.09152   0.00000   0.00000   0.00009   0.00009  -2.09143
   D15       -1.79352  -0.00004   0.00000  -0.00050  -0.00050  -1.79403
   D16       -2.82795   0.00000   0.00000  -0.00011  -0.00011  -2.82806
   D17        0.32202  -0.00001   0.00000  -0.00017  -0.00017   0.32185
   D18        2.85898  -0.00000   0.00000  -0.00000  -0.00000   2.85898
   D19       -0.47856  -0.00000   0.00000  -0.00015  -0.00015  -0.47872
   D20       -2.77173   0.00000   0.00000   0.00006   0.00006  -2.77167
         Item               Value     Threshold  Converged?
 Maximum Force            0.000062     0.000450     YES
 RMS     Force            0.000015     0.000300     YES
 Maximum Displacement     0.000688     0.001800     YES
 RMS     Displacement     0.000145     0.001200     YES
 Predicted change in Energy=-7.532004D-09
 Optimization completed.
    -- Stationary point found.
                       ----------------------------
                       !   Optimized Parameters   !
                       ! (Angstroms and Degrees)  !
 ----------------------                            ----------------------
 !      Name          Value   Derivative information (Atomic Units)     !
 ------------------------------------------------------------------------
 !       R2          1.3915   -DE/DX =    0.0                           !
 !       R3          1.5244   -DE/DX =    0.0                           !
 !       R4          1.0845   -DE/DX =    0.0                           !
 !       R5          1.5397   -DE/DX =    0.0                           !
 !       R6          1.3761   -DE/DX =    0.0                           !
 !       R7          1.088    -DE/DX =    0.0                           !
 !       R8          1.0897   -DE/DX =    0.0                           !
 !       R9          1.0902   -DE/DX =    0.0                           !
 !       R10         1.5243   -DE/DX =    0.0                           !
 !       R11         1.0798   -DE/DX =    0.0                           !
 !       R12         1.0819   -DE/DX =    0.0                           !
 !       R13         1.0908   -DE/DX =    0.0                           !
 !       R14         1.0903   -DE/DX =    0.0                           !
 !       R15         1.3919   -DE/DX =    0.0                           !
 !       R16         1.085    -DE/DX =    0.0                           !
 !       R17         1.3795   -DE/DX =    0.0                           !
 !       R18         1.0896   -DE/DX =    0.0                           !
 !       R19         1.0792   -DE/DX =    0.0                           !
 !       R20         1.0828   -DE/DX =    0.0                           !
 !       A3        124.0284   -DE/DX =    0.0                           !
 !       A4        116.7663   -DE/DX =    0.0                           !
 !       A5        102.1719   -DE/DX =    0.0001                        !
 !       A6        124.6939   -DE/DX =    0.0                           !
 !       A7        116.4825   -DE/DX =    0.0                           !
 !       A8        110.5386   -DE/DX =    0.0                           !
 !       A9        112.1103   -DE/DX =    0.0                           !
 !       A10       102.2023   -DE/DX =    0.0001                        !
 !       A11       121.1177   -DE/DX =    0.0                           !
 !       A12       120.2204   -DE/DX =    0.0                           !
 !       A13       112.7828   -DE/DX =    0.0                           !
 !       A14       112.4844   -DE/DX =    0.0                           !
 !       A15       124.1518   -DE/DX =    0.0                           !
 !       A16       116.3514   -DE/DX =    0.0                           !
 !       A17       124.8959   -DE/DX =    0.0                           !
 !       A18       116.1097   -DE/DX =    0.0                           !
 !       A19       121.3903   -DE/DX =    0.0                           !
 !       A20       120.078    -DE/DX =    0.0                           !
 !       D4       -160.1972   -DE/DX =    0.0                           !
 !       D5         97.4391   -DE/DX =    0.0                           !
 !       D6        -19.9156   -DE/DX =    0.0                           !
 !       D7       -165.7395   -DE/DX =    0.0                           !
 !       D8        119.8456   -DE/DX =    0.0                           !
 !       D9       -121.4239   -DE/DX =    0.0                           !
 !       D10         3.8365   -DE/DX =    0.0                           !
 !       D11        25.2744   -DE/DX =    0.0                           !
 !       D12       158.4045   -DE/DX =    0.0                           !
 !       D13       119.5578   -DE/DX =    0.0                           !
 !       D14      -119.8354   -DE/DX =    0.0                           !
 !       D15      -102.7613   -DE/DX =    0.0                           !
 !       D16      -162.0294   -DE/DX =    0.0                           !
 !       D17        18.4502   -DE/DX =    0.0                           !
 !       D18       163.8074   -DE/DX =    0.0                           !
 !       D19       -27.4197   -DE/DX =    0.0                           !
 !       D20      -158.8082   -DE/DX =    0.0                           !
 ------------------------------------------------------------------------
 GradGradGradGradGradGradGradGradGradGradGradGradGradGradGradGradGradGrad

 ---------------------------------------------------------------------------------------------------
                            Z-MATRIX (ANGSTROMS AND DEGREES)
   CD    Cent   Atom    N1       Length/X        N2       Alpha/Y        N3        Beta/Z          J
 ---------------------------------------------------------------------------------------------------
      1      1  C 
      2      2  C        1   1.391506(     1)
      3      3  C        1   1.524436(     2)      2  124.028(    20)
      4      4  H        1   1.084455(     3)      2  116.766(    21)      3 -160.197(    38)      0
      5      5  C        3   1.539743(     4)      1  102.172(    22)      2   97.439(    39)      0
      6      6  C        2   1.376067(     5)      1  124.694(    23)      3  -19.916(    40)      0
      7      7  H        2   1.087981(     6)      1  116.482(    24)      6 -165.740(    41)      0
      8      8  H        3   1.089675(     7)      1  110.539(    25)      5  119.846(    42)      0
      9      9  H        3   1.090154(     8)      1  112.110(    26)      5 -121.424(    43)      0
     10     10  C        5   1.524267(     9)      3  102.202(    27)      1    3.837(    44)      0
     11     11  H        6   1.079779(    10)      2  121.118(    28)      1   25.274(    45)      0
     12     12  H        6   1.081914(    11)      2  120.220(    29)     11  158.404(    46)      0
     13     13  H        5   1.090764(    12)      3  112.783(    30)     10  119.558(    47)      0
     14     14  H        5   1.090334(    13)      3  112.484(    31)     10 -119.835(    48)      0
     15     15  C       10   1.391921(    14)      5  124.152(    32)      3 -102.761(    49)      0
     16     16  H       10   1.085050(    15)      5  116.351(    33)     15 -162.029(    50)      0
     17     17  C       15   1.379504(    16)     10  124.896(    34)      5   18.450(    51)      0
     18     18  H       15   1.089576(    17)     10  116.110(    35)     17  163.807(    52)      0
     19     19  H       17   1.079150(    18)     15  121.390(    36)     10  -27.420(    53)      0
     20     20  H       17   1.082760(    19)     15  120.078(    37)     19 -158.808(    54)      0
 ---------------------------------------------------------------------------------------------------
                         Z-Matrix orientation:                         
 ---------------------------------------------------------------------
 Center     Atomic      Atomic             Coordinates (Angstroms)
 Number     Number       Type             X           Y           Z
 ---------------------------------------------------------------------
      1          6           0        0.000000    0.000000    0.000000
      2          6           0        0.000000    0.000000    1.391506
      3          6           0        1.263391    0.000000   -0.853081
      4          1           0       -0.910998    0.328030   -0.488387
      5          6           0        1.423395   -1.492460   -1.196258
      6          6           0        1.063745   -0.385398    2.174753
      7          1           0       -0.969080    0.095961    1.876662
      8          1           0        1.125898    0.618140   -1.739867
      9          1           0        2.119841    0.410553   -0.317938
     10          6           0        0.174602   -2.102618   -0.570468
     11          1           0        2.076902   -0.332685    1.805084
     12          1           0        0.965002   -0.413424    3.251787
[...]
 622665,0.00315579,-0.01419146,0.02775889,-0.00458441,-0.00038821,-0.00
 038072,-0.05359345,0.02015181,-0.03231123,0.00155735,-0.00003673,-0.00
 039996,-0.00214235,0.00226513,-0.00389929,-0.00017944,-0.00048451,-0.0
 0042825,-0.00006316,0.00081111,0.00107559,0.05688822,-0.00126354,0.001
 94571,-0.00291683,0.00005199,-0.00069883,-0.00133568,0.01968758,-0.128
 94045,0.12197883,-0.00020107,0.00136852,0.00015580,0.00609744,-0.01741
 195,0.02267979,0.00030148,-0.00027676,-0.00008876,0.00017004,-0.000067
 60,-0.00024541,-0.02293396,0.14037003,-0.00300608,0.00812717,-0.016143
 13,0.00298345,0.00035102,0.00015631,-0.03069014,0.12255624,-0.22655356
 ,-0.00012784,-0.00056624,0.00145736,0.00155576,-0.00701764,0.00852380,
 -0.00011976,0.00002357,0.00006682,0.00012125,-0.00024533,-0.00081932,0
 .03028279,-0.13014484,0.24401831,-0.02258296,-0.00565373,-0.01193684,0
 .00097670,0.00090860,-0.00226520,-0.21004669,-0.07594949,-0.10364810,-
 0.00270981,-0.00166411,0.00234914,0.00590748,0.00330630,0.00383650,0.0
 0056450,-0.00070668,-0.00008453,0.00018927,0.00034857,-0.00016140,-0.0
 0266246,-0.00098828,-0.00244586,0.22788532,0.00216421,0.00082348,0.003
 31652,-0.00048268,0.00117241,-0.00097055,-0.07552250,-0.08105664,-0.04
 774600,0.00116426,-0.00060694,-0.00078120,-0.02199986,-0.01159423,-0.0
 1561113,-0.00019429,-0.00099881,0.00029755,0.00007792,-0.00005426,0.00
 004518,0.01483670,0.00766925,0.00877239,0.08052819,0.08885527,0.015301
 91,0.00540893,0.01153438,0.00020217,0.00035374,0.00062980,-0.10408323,
 -0.04828899,-0.11592541,0.00253566,-0.00009394,-0.00134122,-0.00424910
 ,-0.00076576,-0.00449789,0.00053563,0.00108516,-0.00065034,-0.00033928
 ,-0.00052842,0.00035107,-0.02160755,-0.00979175,-0.01308647,0.11196859
 ,0.05264105,0.12254466,-0.00118658,-0.01085667,-0.02235655,0.00572251,
 -0.00200078,0.01834033,-0.00659994,-0.00750048,0.00591097,0.00092973,0
 .00511696,0.00073125,-0.16005188,-0.03866404,0.03070305,-0.00732082,0.
 01009917,-0.00748299,0.00012804,-0.00087154,0.00020761,-0.00079204,0.0
 0067029,0.00060612,-0.00048917,0.00077559,0.00002654,0.51520251,0.0096
 2897,0.07074385,0.04978275,-0.03134542,-0.00134268,-0.06315408,-0.0383
 6288,-0.03664772,0.01578576,-0.00255847,-0.00809003,-0.00118657,-0.047
 60846,-0.07291101,0.03133261,0.02611982,-0.04031536,0.01102372,-0.0001
 5072,0.00068228,-0.00062232,-0.00163637,-0.00272488,-0.00041310,-0.000
 68875,-0.00438217,0.00116860,0.12662444,0.20002826,-0.01172369,-0.0060
 3428,-0.00950447,-0.00063785,-0.00601337,0.00032118,0.00627305,-0.0040
 5505,-0.00021634,0.00133500,0.00493701,0.00040842,0.03170696,0.0261030
 4,-0.10376073,-0.00258460,0.01323875,-0.00172544,0.00022456,0.00036296
 ,0.00015157,-0.00027622,-0.00037015,-0.00031623,0.00125844,-0.00001497
 ,-0.00037076,0.09966091,-0.15759913,0.60601119,0.00039314,-0.00004881,
 0.00159710,-0.01936944,-0.00122541,0.01036069,0.00051506,-0.00070505,0
 .00026849,0.00016691,0.00007736,-0.00009150,0.00013995,-0.00020502,-0.
 00023942,-0.30822903,-0.00872920,0.09375371,-0.00194988,0.00110151,-0.
 00273568,0.00039626,0.00016918,0.00026362,0.00060820,0.00028188,-0.000
 07430,-0.00047666,0.00021558,-0.00003993,0.32550124,-0.00146744,-0.007
 34574,-0.00466938,0.01466402,0.00158481,0.00335268,0.00064832,-0.00017
 411,-0.00046605,0.00011085,-0.00002211,0.00009391,0.00015923,0.0006117
 9,-0.00076290,-0.02042605,-0.02361047,0.00701776,0.00338881,0.00658418
 ,0.00227298,0.00000023,0.00006954,-0.00013837,-0.00013445,0.00007916,0
 .00089473,-0.00133768,0.00422819,-0.00213051,0.00760820,0.02932671,0.0
 0002082,-0.00183344,-0.00124359,-0.01518524,-0.00214211,0.01380119,-0.
 00117689,-0.00046017,-0.00125064,0.00047650,0.00049210,0.00020702,0.00
 014755,0.00011058,-0.00016341,0.09442624,0.00936808,-0.09307976,-0.002
 86516,0.00227985,-0.00110667,0.00009713,0.00012839,0.00013539,0.000553
 81,0.00060725,-0.00088358,-0.00044939,0.00125550,-0.00057344,-0.102132
 36,-0.00768716,0.09027340,-0.00373793,0.00170389,-0.00231090,0.0056344
 4,-0.00096726,-0.02569520,-0.00040774,-0.00033794,0.00014955,-0.000012
 29,0.00031304,-0.00126375,0.00000022,-0.00004598,-0.00002890,-0.059290
 79,0.00289853,0.03211013,0.00122724,-0.00106313,0.00014976,0.00033221,
 0.00012354,0.00012674,0.00046897,0.00030420,0.00000633,-0.00053298,0.0
 0108009,-0.00005685,0.00101510,0.00006451,0.02676844,0.05499978,0.0027
 5203,0.00391657,-0.00118290,0.00021755,0.00241423,0.01437628,0.0005322
 1,0.00022728,0.00009860,0.00014869,0.00014137,0.00012921,-0.00006052,-
 0.00016381,0.00021252,0.00038215,-0.02759128,0.00282069,-0.00115853,-0
 .00473409,-0.00094655,0.00009061,0.00006671,0.00013225,-0.00001821,0.0
 0023063,-0.00042012,-0.00105382,0.00135020,-0.00048892,0.00014535,0.00
 172678,0.00175559,-0.00297285,0.02474191,-0.00282365,0.00215051,0.0003
 2303,0.00542527,-0.00105921,-0.01357371,-0.00017031,0.00006814,0.00032
 544,0.00005162,-0.00018825,-0.00094654,-0.00006275,0.00004036,0.000052
 36,0.02891346,0.01224746,-0.33635765,-0.00051914,-0.00042867,0.0010982
 9,-0.00005217,-0.00003378,-0.00004693,-0.00013872,-0.00012092,0.000096
 56,0.00010772,-0.00029459,0.00030456,-0.00108883,0.00016209,-0.0071199
 5,-0.02951257,-0.01250573,0.35564094,-0.00119456,0.00241325,0.00129664
 ,-0.00062300,0.00007877,-0.00120618,-0.00109817,0.00116588,0.00189731,
 -0.00007872,0.00024446,0.00009173,-0.04877734,0.00081703,0.00255874,0.
 00056635,-0.00064542,0.00030687,-0.00002917,-0.00014137,-0.00007661,0.
 00121713,0.00001994,0.00024552,0.00008661,-0.00055781,0.00011784,-0.00
 037653,0.00042700,0.02945911,0.00009099,0.00024400,0.00012614,0.000084
 66,0.00008139,-0.00001613,0.05067714,-0.00044217,-0.00328143,-0.001120
 25,0.00115971,0.00026578,-0.00011638,-0.00070913,-0.00618106,-0.029831
 32,0.00045791,-0.00003245,-0.00028016,0.00035181,-0.05233676,-0.041135
 11,-0.00011848,-0.00002859,0.00016791,0.00009409,0.00033910,-0.0001689
 8,-0.00027812,0.00244874,0.00026148,0.00095342,-0.00321956,-0.00156939
 ,0.00125476,0.00114045,0.01657073,-0.00004296,-0.00009820,0.00006569,0
 .00001846,0.00003489,-0.00002388,0.00022478,0.05904406,0.00031894,-0.0
 0065539,-0.00034857,0.00031179,-0.00004138,0.00056175,-0.00094459,-0.0
 0025301,-0.00312951,0.00011051,-0.00020099,-0.00010523,0.00383153,-0.0
 4185687,-0.30379521,-0.00025807,0.00014895,0.00003971,0.00004323,0.000
 07248,0.00001020,0.00016932,0.00024723,0.00162348,0.00084062,-0.000561
 22,0.00011621,-0.00027751,0.00008261,-0.01094998,0.00006261,-0.0000288
 6,-0.00000138,0.00002359,0.00002730,-0.00002350,-0.00608447,0.04443120
 ,0.32683764,-0.00025845,0.00071272,0.00149996,-0.00038147,0.00014906,-
 0.00075856,0.00067105,-0.00047403,-0.00020893,0.00007370,-0.00001160,-
 0.00000119,-0.22847905,0.08450141,-0.08610949,0.00036233,-0.00037884,0
 .00044254,-0.00001496,-0.00005979,-0.00001891,0.00013351,-0.00056122,0
 .00059036,0.00127428,-0.00020418,0.00020673,-0.02297487,0.00597531,-0.
 01101770,0.00001682,0.00034962,0.00023700,0.00009492,0.00003606,-0.000
 02187,0.00158148,-0.00071069,-0.00036135,0.24787828,-0.00028845,-0.002
 48722,-0.00060312,0.00088770,-0.00027494,0.00049006,0.02407232,-0.0136
 9956,0.01372242,0.00038428,0.00019089,-0.00017910,0.08471255,-0.084798
 16,0.04118407,0.00004072,0.00032405,-0.00007551,0.00000269,0.00017447,
 -0.00016337,0.00146931,-0.00401510,-0.00162676,-0.00025423,0.00248954,
 0.00035744,-0.01347499,0.00582483,-0.00878907,-0.00006717,-0.00017355,
 -0.00021258,-0.00010617,0.00001889,0.00002160,-0.00468168,0.00249912,-
 0.00162719,-0.09020863,0.09437935,-0.00007193,-0.00164745,-0.00134203,
 0.00045195,-0.00014278,0.00058766,0.00632239,-0.00356066,0.00175639,0.
 00003577,0.00015772,0.00000300,-0.08698429,0.04138126,-0.09098311,-0.0
 0024722,0.00066849,-0.00035522,0.00001293,0.00010636,-0.00001092,0.000
 46213,-0.00030388,0.00047077,0.00018912,0.00020610,0.00150650,0.010609
 96,-0.00509184,0.00670390,-0.00017875,-0.00011928,-0.00007821,-0.00009
 844,-0.00014535,0.00001668,-0.02759043,0.01237565,-0.01247525,0.094698
 34,-0.04443549,0.09637628,0.00088160,0.02722194,0.01423730,-0.00616933
 ,0.00837933,-0.02190767,-0.00665681,0.00059401,0.00459631,0.00000761,-
 0.00080604,-0.00015867,0.00248627,-0.01769523,0.02414134,0.00894357,-0
 .02124801,0.00332543,-0.00036453,-0.00054709,-0.00030105,-0.00030338,-
 0.00112446,-0.00023530,-0.00001838,-0.00142290,0.00007076,-0.09695922,
 -0.04738304,0.01386388,0.00034300,0.00262776,0.00056321,0.00065273,0.0
 0110587,-0.00029489,-0.00455138,-0.00193251,0.00210510,0.00088377,0.00
 042238,0.00023081,0.62307787,-0.00312284,-0.02971555,-0.01154039,0.004
 45567,-0.01449907,0.00970974,0.00209867,-0.00089343,-0.00198689,0.0003
 0838,0.00101619,0.00011413,0.00013681,-0.00334782,0.00609244,-0.004153
 66,0.00013186,-0.00230799,-0.00000826,0.00034474,0.00021595,0.00043050
 ,0.00014260,-0.00007669,0.00024867,0.00008383,-0.00028205,-0.01901066,
 -0.10342671,0.13260280,0.00007100,-0.00051027,-0.00045778,-0.00033127,
 -0.00041437,0.00006741,0.00058256,-0.00108743,-0.00062631,0.00036274,0
 .00088651,-0.00011539,0.13487070,0.28029462,0.00923911,0.04871752,0.03
 107250,-0.02494684,0.00333226,-0.04330431,-0.00860060,0.00077600,0.004
 08810,-0.00141700,-0.00435905,-0.00039339,0.00042416,0.00560252,-0.003
 30822,0.01927075,-0.04916579,0.00277998,0.00017269,0.00067991,-0.00033
 737,-0.00080633,-0.00023166,0.00047970,-0.00069991,-0.00127333,0.00024
 262,0.00474528,0.07796608,-0.28369073,0.00001058,0.00492768,0.00150064
 ,0.00069733,0.00095398,-0.00041033,-0.00109618,0.00048985,0.00054199,-
 0.00263172,0.00044725,0.00051974,0.07861447,-0.16981835,0.58606291,0.0
 0129869,0.00247208,0.00369531,-0.00029759,0.00069780,-0.00191117,-0.00
 116864,0.00024550,0.00044993,0.00053565,-0.00070054,-0.00002887,-0.016
 78364,-0.00093498,-0.01450695,0.00075676,-0.00147405,0.00072978,-0.000
 00956,0.00003120,-0.00006402,0.00004609,-0.00039016,-0.00008245,0.0001
 6621,-0.00038813,-0.00009618,-0.22013057,-0.03401401,-0.13351896,0.000
 04754,0.00026743,0.00012572,0.00006603,0.00002116,-0.00003249,0.001507
 48,0.00050840,0.00006897,-0.00302017,-0.00279490,0.00170769,-0.0006019
 6,-0.00075146,-0.00027584,0.23300576,-0.00384959,-0.00508093,-0.007944
 21,0.00108560,-0.00128930,0.00388660,0.00036806,-0.00002830,0.00087986
 ,0.00060138,0.00091774,-0.00019740,-0.00752101,0.00120729,-0.00580354,
 -0.00169690,0.00261961,-0.00145460,0.00008732,-0.00013284,-0.00002033,
 -0.00021871,-0.00031942,0.00007308,0.00002780,0.00006351,-0.00006015,-
 0.03911809,-0.03524341,-0.01866849,-0.00001314,-0.00038592,-0.00008214
 ,-0.00002463,-0.00015498,0.00002499,0.00020253,0.00122764,0.00046384,-
 0.00002606,-0.00148121,0.00066731,0.01754354,0.00312652,0.01819106,0.0
 3577463,0.03738533,-0.00176319,-0.00189660,-0.00356597,0.00050887,-0.0
 0064865,0.00194415,0.00056533,-0.00016005,-0.00021510,0.00035186,0.000
 39815,0.00055563,0.01201630,0.00201575,0.00880944,-0.00072362,0.001524
 99,-0.00057605,0.00007668,-0.00000737,-0.00003162,-0.00007939,0.000117
 82,0.00009619,-0.00006121,0.00017646,-0.00000986,-0.13365240,-0.008782
 87,-0.15290193,0.00001665,-0.00018024,-0.00007581,-0.00003081,-0.00006
 242,0.00002634,-0.00048304,-0.00041636,0.00150478,0.00279685,0.0011572
 9,-0.00039041,-0.02143372,-0.00601711,-0.01218422,0.14226501,0.0103538
 7,0.16164987,-0.00337941,-0.01954955,-0.01268850,0.00723487,-0.0018966
 9,0.01436077,0.00467882,-0.00108110,-0.00239500,0.00047253,0.00154756,
 0.00027628,0.00198216,0.00274408,-0.00177386,-0.01606563,0.01622389,-0
 .00180872,0.00003056,-0.00048576,0.00030786,0.00044882,0.00030488,-0.0
 0007645,0.00032819,0.00054167,-0.00040754,0.00006122,0.03412378,-0.020
 85530,-0.00104325,-0.00604345,-0.00110543,-0.00091662,0.00000110,0.000
 41306,0.00005994,-0.00026343,-0.00033779,0.00049342,0.00004543,0.00083
 617,-0.25837452,-0.03181073,-0.12226774,0.00330834,-0.00465962,0.00026
 765,0.65563489,-0.00123197,-0.02389120,-0.02652862,0.02140991,-0.01949
 603,0.04022234,0.00353902,-0.00043492,-0.00202647,0.00063634,0.0016410
 9,-0.00010915,0.00331828,-0.00016546,-0.00116429,-0.01970650,0.0450443
 5,-0.00156459,0.00016260,0.00021368,0.00046401,0.00023937,0.00027498,-
 0.00008753,0.00002204,0.00059866,-0.00017156,0.00535423,0.03366930,-0.
 00144974,0.00029500,-0.01057526,-0.00261290,-0.00082326,-0.00178457,0.
 00043954,0.00091438,-0.00008305,-0.00007422,0.00075148,-0.00010837,-0.
 00062094,-0.00465212,-0.06359389,0.04849298,0.00012006,-0.00006385,0.0
 0352745,0.08987428,0.16682965,-0.00755614,-0.02593765,-0.02320764,0.01
 546192,-0.00918202,0.02586454,0.00371784,-0.00066321,-0.00145171,0.001
 04753,0.00289722,0.00027781,0.00337029,-0.00095995,-0.00169218,-0.0126
 0565,0.03036681,-0.01128143,-0.00010250,0.00036145,0.00050305,0.000475
 60,0.00004816,-0.00011956,0.00054567,0.00067767,-0.00037088,-0.0328707
 7,0.04214105,-0.04243874,0.00044950,-0.00254856,-0.00127603,-0.0012387
 3,-0.00501365,0.00027021,0.00006288,-0.00011303,-0.00009456,0.00038321
 ,0.00013623,-0.00152578,-0.14308359,0.00256654,-0.20114541,0.00061496,
 0.00155567,-0.00386891,0.06740664,-0.19860613,0.58743766,0.00001485,-0
 .00003989,0.00023375,-0.00038667,-0.00016058,0.00021711,-0.00038690,-0
 .00040269,0.00014450,-0.00000093,-0.00012584,0.00002966,0.00228427,-0.
 00099635,-0.00056504,-0.00007110,0.00001546,-0.00009791,0.00030265,0.0
 0007996,-0.00008948,-0.00000859,-0.00013874,-0.00002016,-0.00000332,-0
 .00009633,0.00002367,-0.00104614,0.00012942,-0.00107325,0.00016963,0.0
 0007695,-0.00005701,-0.00002612,-0.00006544,-0.00005794,0.00003179,-0.
 00017480,0.00005478,0.00024750,0.00019190,-0.00037047,-0.25193321,-0.0
 9152116,0.06113760,0.00103521,0.00116551,0.00075934,-0.02175944,-0.009
 11339,0.00826528,0.27188660,0.00076610,0.00105060,0.00017633,0.0003555
 1,0.00069427,-0.00042510,0.00080610,0.00125588,-0.00024730,0.00001463,
 -0.00019684,-0.00005667,0.00004535,0.00482023,0.00466419,0.00023344,0.
 00046581,-0.00033349,0.00004585,-0.00060732,-0.00020292,0.00009679,0.0
 0018082,0.00002469,0.00001556,0.00017027,-0.00007081,-0.01692641,-0.00
 665526,0.00778888,-0.00015348,0.00008465,0.00011279,-0.00000070,-0.000
 08768,-0.00000248,-0.00127174,-0.00078580,0.00040642,-0.00012538,-0.00
 009861,0.00010897,-0.08612423,-0.07619680,0.02989302,0.00198690,-0.002
 89872,-0.00151450,-0.00214129,0.00256745,0.00165806,0.10160693,0.07366
 927,0.00055611,0.00108999,0.00062556,-0.00016868,0.00033943,-0.0007017
 0,0.00061648,0.00061694,-0.00025999,-0.00008524,-0.00005886,-0.0000381
 0,-0.00371399,0.00388011,-0.00143230,0.00051674,-0.00054313,0.00005127
 ,-0.00007568,-0.00020004,0.00008031,-0.00005870,0.00023169,0.00010912,
 -0.00008764,0.00027386,0.00004997,0.02820981,0.00990183,-0.00782717,-0
 .00006603,0.00024890,0.00002572,0.00000809,-0.00000091,-0.00000211,0.0
 0039219,0.00041531,-0.00036956,-0.00023375,-0.00035603,0.00039141,0.06
 199720,0.03463720,-0.07463793,0.00050859,-0.00219926,0.00008607,-0.021
 82781,-0.00666113,0.00825563,-0.06427796,-0.04139953,0.07680918,-0.000
 51921,-0.00079466,-0.00086625,0.00088869,-0.00029415,0.00082229,0.0001
 9920,0.00021305,-0.00029946,0.00008048,0.00007686,0.00003419,0.0003044
 1,0.00078808,0.00082948,-0.00207241,0.00085424,0.00071354,0.00015138,0
 .00018932,0.00004040,0.00008063,0.00004693,0.00003806,0.00001241,0.000
 08944,-0.00008598,-0.00004228,0.00034190,0.00126858,0.00149717,-0.0009
 1378,-0.00062151,0.00009180,0.00016387,-0.00009575,0.00045123,-0.00022
 712,0.00019917,0.00080087,-0.00019716,0.00008378,-0.01677691,-0.005498
 98,0.00831425,0.00018893,0.00001356,-0.00012312,-0.31358571,-0.0659843
 2,0.06416404,-0.00130860,-0.00069766,-0.00305719,0.32920409,0.00085670
 ,0.00351893,0.00471940,-0.00319561,0.00153796,-0.00545705,-0.00071167,
 -0.00005947,0.00045516,-0.00024049,-0.00040596,-0.00002899,0.00047329,
 -0.00102086,0.00071603,0.00728196,-0.01112305,-0.00183720,-0.00009928,
 0.00026102,-0.00016129,-0.00016248,-0.00008560,-0.00001097,-0.00029498
 ,-0.00032934,0.00008106,0.00247801,-0.00878850,0.00121258,0.00115419,-
 0.00072561,-0.00054770,-0.00006880,-0.00038928,-0.00015585,-0.00008369
 ,0.00009100,0.00011848,-0.00023668,0.00044184,0.00010765,-0.00759996,0
 .00330058,-0.00879148,-0.00045352,0.00041297,-0.00002607,-0.05540038,-
 0.03811348,0.03051831,-0.00239323,0.00622311,0.00141920,0.07150993,0.0
 4666882,0.00011384,0.00080701,0.00116458,-0.00093360,0.00053518,-0.001
 23606,0.00003981,0.00003963,0.00054294,-0.00000971,-0.00009883,-0.0000
 4958,-0.00127056,0.00027248,-0.00077714,0.00223840,-0.00261788,-0.0009
 2508,-0.00008946,0.00000041,-0.00010982,0.00002715,-0.00016152,-0.0000
 5571,-0.00000552,0.00007585,0.00002142,0.00107861,-0.00223300,0.000231
 69,-0.00000802,0.00000264,0.00083638,0.00010918,-0.00021056,0.00000248
 ,0.00009088,-0.00007633,0.00015052,0.00064338,0.00057729,-0.00150071,-
 0.02208715,-0.00508296,0.00904891,0.00044683,-0.00044009,-0.00012299,0
 .07099959,0.02763694,-0.06971195,-0.00444103,0.00155836,-0.00176093,-0
 .07055812,-0.02519152,0.06875031,-0.00044268,-0.00116592,-0.00073625,0
 .00084211,-0.00000155,0.00086190,0.00004556,0.00006332,0.00005694,0.00
 005811,0.00006044,-0.00000943,-0.00050437,0.00013712,0.00024680,-0.001
 05477,0.00148511,-0.00103877,-0.00002423,0.00001954,0.00002102,0.00007
 325,-0.00004186,-0.00000964,0.00004467,0.00010463,-0.00005266,-0.00306
 433,-0.00091821,-0.00326613,0.00016725,0.00011290,0.00005043,0.0002563
 7,-0.00034867,-0.00002394,0.00037407,-0.00012393,0.00012362,0.00061705
 ,-0.00015589,-0.00009950,0.00543323,0.01264330,-0.01988405,0.00004946,
 0.00025782,-0.00127403,-0.05960917,-0.02512544,0.03149201,0.00095852,0
 .00146773,0.00084745,0.00035383,-0.01281331,0.02361550,0.05542608,0.00
 060778,0.00103518,0.00071796,-0.00080803,-0.00004998,-0.00075037,0.000
 18468,0.00002958,-0.00007748,0.00001872,-0.00013179,-0.00002935,-0.000
 55081,0.00030856,-0.00006755,-0.00047469,-0.00262900,0.00321137,0.0001
 1901,-0.00006632,-0.00002819,-0.00006104,0.00000367,0.00000559,-0.0000
 0625,0.00000594,0.00005223,-0.00155830,0.00286036,0.00279691,0.0000709
 9,-0.00067455,-0.00013984,0.00023572,0.00045059,-0.00040875,-0.0000342
 6,0.00004357,-0.00007309,0.00015872,-0.00009277,0.00040356,-0.00222997
 ,0.00435789,-0.00683045,-0.00022342,0.00011826,0.00044046,-0.02207468,
 -0.09252908,0.13009701,0.00196230,-0.00365532,-0.00163558,0.00032063,-
 0.00141506,0.00460690,0.02434288,0.09203027,0.00031457,0.00054423,0.00
 071443,-0.00064539,0.00011179,-0.00070680,-0.00000235,-0.00008635,-0.0
 0005680,-0.00000998,-0.00007681,-0.00000588,-0.00044291,-0.00016251,0.
 00025426,0.00018791,-0.00193341,0.00155764,-0.00002815,-0.00004013,-0.
 00001518,-0.00004877,0.00003657,0.00000366,-0.00000694,-0.00001056,0.0
 0004324,-0.00384854,-0.00106302,0.00014345,-0.00012814,-0.00024208,0.0
 0007274,0.00008702,0.00047071,0.00032382,-0.00009282,0.00007336,-0.000
 09353,-0.00013490,-0.00002543,0.00032930,0.00575623,0.01230569,-0.0169
 2521,-0.00009585,0.00077392,-0.00072962,0.03067611,0.12089400,-0.26442
 410,0.00018457,-0.00213889,0.00054556,-0.00080040,0.00286026,-0.004499
 27,-0.03092126,-0.13229133,0.28346831\\-0.00074645,-0.00166247,-0.0000
 0700,0.00074898,0.00080795,0.00000429,0.00000193,0.00083126,-0.0000010
 5,-0.00000012,-0.00000008,-0.00000073,-0.00000401,0.00000544,0.0000021
 1,-0.00000062,0.00000442,-0.00000078,0.00000016,0.00000091,0.00000022,
 0.00000011,-0.00000021,-0.00000111,-0.00000005,-0.00000032,-0.00000035
 ,-0.00000011,0.00000520,-0.00000251,0.00000011,-0.00000228,0.00000052,
 -0.00000025,-0.00000179,0.00000014,-0.00000031,0.00000081,-0.00000082,
 0.00000065,0.00000021,-0.00000064,0.00000241,0.00000719,0.00001090,-0.
 00000020,0.00000081,-0.00000053,-0.00000168,-0.00000085,-0.00000379,0.
 00000010,-0.00000055,0.,-0.00000036,0.00000322,0.00000015,-0.00000028,
 0.00000114,0.00000097\\\@


 SACRED COWS MAKE GREAT HAMBURGERS -- ROBERT REISNER
 Job cpu time:       0 days  1 hours 54 minutes 35.3 seconds.
 Elapsed time:       0 days  0 hours  9 minutes 48.7 seconds.
 File lengths (MBytes):  RWF=    162 Int=      0 D2E=      0 Chk=     32 Scr=      1
 Normal termination of Gaussian 16 at Sat Jun 11 01:06:13 2022.
