 Entering Gaussian System, Link 0=g16
 Input=int_zmat_field_N75.gjf
 Output=int_zmat_field_N75.out
 Initial command:
 /software/gaussian/g16-a03/l1.exe "/local_scratch/11172268/Gau-32180.inp" -scrdir="/local_scratch/11172268/"
 Entering Link 1 = /software/gaussian/g16-a03/l1.exe PID=     32181.
  
 Copyright (c) 1988,1990,1992,1993,1995,1998,2003,2009,2016,
            Gaussian, Inc.  All Rights Reserved.
  
 This is part of the Gaussian(R) 16 program.  It is based on
 the Gaussian(R) 09 system (copyright 2009, Gaussian, Inc.),
 the Gaussian(R) 03 system (copyright 2003, Gaussian, Inc.),
 the Gaussian(R) 98 system (copyright 1998, Gaussian, Inc.),
 the Gaussian(R) 94 system (copyright 1995, Gaussian, Inc.),
 the Gaussian 92(TM) system (copyright 1992, Gaussian, Inc.),
 the Gaussian 90(TM) system (copyright 1990, Gaussian, Inc.),
 the Gaussian 88(TM) system (copyright 1988, Gaussian, Inc.),
 the Gaussian 86(TM) system (copyright 1986, Carnegie Mellon
 University), and the Gaussian 82(TM) system (copyright 1983,
 Carnegie Mellon University). Gaussian is a federally registered
 trademark of Gaussian, Inc.
  
 This software contains proprietary and confidential information,
 including trade secrets, belonging to Gaussian, Inc.
  
 This software is provided under written license and may be
 used, copied, transmitted, or stored only in accord with that
 written license.
  
 The following legend is applicable only to US Government
 contracts under FAR:
  
                    RESTRICTED RIGHTS LEGEND
  
 Use, reproduction and disclosure by the US Government is
 subject to restrictions as set forth in subparagraphs (a)
 and (c) of the Commercial Computer Software - Restricted
 Rights clause in FAR 52.227-19.
  
 Gaussian, Inc.
 340 Quinnipiac St., Bldg. 40, Wallingford CT 06492
  
  
 ---------------------------------------------------------------
 Warning -- This program may not be used in any manner that
 competes with the business of Gaussian, Inc. or will provide
 assistance to any competitor of Gaussian, Inc.  The licensee
 of this program is prohibited from giving any competitor of
 Gaussian, Inc. access to this program.  By using this program,
 the user acknowledges that Gaussian, Inc. is engaged in the
 business of creating and licensing software in the field of
 computational chemistry and represents and warrants to the
 licensee that it is not a competitor of Gaussian, Inc. and that
 it will not use this program in any manner prohibited above.
 ---------------------------------------------------------------
  

 Cite this work as:
 Gaussian 16, Revision A.03,
 M. J. Frisch, G. W. Trucks, H. B. Schlegel, G. E. Scuseria, 
 M. A. Robb, J. R. Cheeseman, G. Scalmani, V. Barone, 
 G. A. Petersson, H. Nakatsuji, X. Li, M. Caricato, A. V. Marenich, 
 J. Bloino, B. G. Janesko, R. Gomperts, B. Mennucci, H. P. Hratchian, 
 J. V. Ortiz, A. F. Izmaylov, J. L. Sonnenberg, D. Williams-Young, 
 F. Ding, F. Lipparini, F. Egidi, J. Goings, B. Peng, A. Petrone, 
 T. Henderson, D. Ranasinghe, V. G. Zakrzewski, J. Gao, N. Rega, 
 G. Zheng, W. Liang, M. Hada, M. Ehara, K. Toyota, R. Fukuda, 
 J. Hasegawa, M. Ishida, T. Nakajima, Y. Honda, O. Kitao, H. Nakai, 
 T. Vreven, K. Throssell, J. A. Montgomery, Jr., J. E. Peralta, 
 F. Ogliaro, M. J. Bearpark, J. J. Heyd, E. N. Brothers, K. N. Kudin, 
 V. N. Staroverov, T. A. Keith, R. Kobayashi, J. Normand, 
 K. Raghavachari, A. P. Rendell, J. C. Burant, S. S. Iyengar, 
 J. Tomasi, M. Cossi, J. M. Millam, M. Klene, C. Adamo, R. Cammi, 
 J. W. Ochterski, R. L. Martin, K. Morokuma, O. Farkas, 
 J. B. Foresman, and D. J. Fox, Gaussian, Inc., Wallingford CT, 2016.
 
 ******************************************
 Gaussian 16:  ES64L-G16RevA.03 25-Dec-2016
                10-Jun-2022 
 ******************************************
 %nprocshared=12
 Will use up to   12 processors via shared memory.
 %chk=checkpoint.chk
 %mem=12GB
 ----------------------------------------------------------------------
 # Opt=(Z-matrix, MaxStep=10) B3LYP/Def2TZVP geom=allcheckpoint guess=r
 ead Field=read NoSymm freq=noraman pop=none
 ----------------------------------------------------------------------
 1/8=10,10=7,18=40,26=3,29=7,38=1/1,3;
 2/12=2,15=1,29=3,40=1/2;
 3/5=44,7=101,11=2,14=-6,25=1,30=1,71=1,74=-5,116=-2/1,2,3;
 4/5=1/1;
 5/5=2,38=6/2;
 7/29=1,30=1/1,2,3,16;
 1/8=10,10=7,18=40,26=3/3(2);
 2/15=1,29=3/2;
 99//99;
 2/15=1,29=3/2;
 3/5=44,7=101,11=2,14=-2,25=1,30=1,71=1,74=-5/1,2,3;
 4/5=5,16=3,69=1/1;
 5/5=2,38=5/2;
 7/30=1/1,2,3,16;
 1/8=10,18=40,26=3/3(-5);
 2/15=1,29=3/2;
 99/9=1/99;
 Structure from the checkpoint file:  "checkpoint.chk"
 ------------------
 int_zmat_initalOpt
 ------------------
 Charge =  0 Multiplicity = 1
 Z-Matrix found in chk file.
 C
 C,1,R2
 S,1,R3,2,A3
 C,1,R4,2,A4,3,D4,0
 C,3,R5,1,A5,2,D5,0
 O,3,R6,1,A6,5,D6,0
 H,2,R7,1,A7,3,D7,0
 C,2,R8,1,A8,7,D8,0
 C,4,R9,1,A9,2,D9,0
 H,4,R10,1,A10,9,D10,0
 C,5,R11,3,A11,1,D11,0
 H,5,R12,3,A12,11,D12,0
 H,5,R13,3,A13,11,D13,0
 H,8,R14,2,A14,1,D14,0
 C,8,R15,2,A15,14,D15,0
 H,9,R16,4,A16,1,D16,0
 C,11,R17,5,A17,3,D17,0
 H,11,R18,5,A18,17,D18,0
 H,15,R19,8,A19,2,D19,0
 H,17,R20,11,A20,5,D20,0
 H,17,R21,11,A21,20,D21,0
      Variables:
 R2=1.38851076
 R3=1.81772506
 R4=1.39095716
 R5=1.8690791
 R6=1.48243504
 R7=1.08295015
 R8=1.39094926
 R9=1.38980685
 R10=1.08425803
 R11=1.48923191
 R12=1.09236404
 R13=1.090749
 R14=1.08294978
 R15=1.39110896
 R16=1.0835707
 R17=1.32789525
 R18=1.08589555
 R19=1.08336001
 R20=1.08194238
 R21=1.08341342
 A3=117.9396947
 A4=120.99609458
 A5=96.3831889
 A6=106.55776133
 A7=118.83617793
 A8=119.27396346
 A9=119.40583494
 A10=120.27885299
 A11=109.86906243
 A12=106.13992227
 A13=105.00917442
 A14=119.62703358
 A15=120.20524874
 A16=119.79050118
 A17=123.90804925
 A18=116.45015678
 A19=119.94744812
 A20=121.45600783
 A21=121.70193243
 D4=176.57404924
 D5=-102.12647787
 D6=109.12020597
 D7=1.22669692
 D8=-178.91889988
 D9=1.27383359
 D10=-179.01963469
 D11=-177.77360825
 D12=122.20526121
 D13=-121.27385616
 D14=-180.26110238
 D15=-179.44865536
 D16=180.24713465
 D17=-100.02159904
 D18=177.26478343
 D19=179.37397887
 D20=177.93322583
 D21=-179.07599995
 Recover connectivity data from disk.

 GradGradGradGradGradGradGradGradGradGradGradGradGradGradGradGradGradGrad
 Berny optimization.
 Initialization pass.
                       ----------------------------
                       !    Initial Parameters    !
                       ! (Angstroms and Degrees)  !
 ----------------------                            ----------------------
 !      Name          Value   Derivative information (Atomic Units)     !
 ------------------------------------------------------------------------
 !       R2          1.3885   estimate D2E/DX2                          !
 !       R3          1.8177   estimate D2E/DX2                          !
 !       R4          1.391    estimate D2E/DX2                          !
 !       R5          1.8691   estimate D2E/DX2                          !
 !       R6          1.4824   estimate D2E/DX2                          !
 !       R7          1.083    estimate D2E/DX2                          !
 !       R8          1.3909   estimate D2E/DX2                          !
 !       R9          1.3898   estimate D2E/DX2                          !
 !       R10         1.0843   estimate D2E/DX2                          !
 !       R11         1.4892   estimate D2E/DX2                          !
 !       R12         1.0924   estimate D2E/DX2                          !
 !       R13         1.0907   estimate D2E/DX2                          !
 !       R14         1.0829   estimate D2E/DX2                          !
 !       R15         1.3911   estimate D2E/DX2                          !
 !       R16         1.0836   estimate D2E/DX2                          !
 !       R17         1.3279   estimate D2E/DX2                          !
 !       R18         1.0859   estimate D2E/DX2                          !
 !       R19         1.0834   estimate D2E/DX2                          !
 !       R20         1.0819   estimate D2E/DX2                          !
 !       R21         1.0834   estimate D2E/DX2                          !
 !       A3        117.9397   estimate D2E/DX2                          !
 !       A4        120.9961   estimate D2E/DX2                          !
 !       A5         96.3832   estimate D2E/DX2                          !
 !       A6        106.5578   estimate D2E/DX2                          !
 !       A7        118.8362   estimate D2E/DX2                          !
 !       A8        119.274    estimate D2E/DX2                          !
 !       A9        119.4058   estimate D2E/DX2                          !
 !       A10       120.2789   estimate D2E/DX2                          !
 !       A11       109.8691   estimate D2E/DX2                          !
 !       A12       106.1399   estimate D2E/DX2                          !
 !       A13       105.0092   estimate D2E/DX2                          !
 !       A14       119.627    estimate D2E/DX2                          !
 !       A15       120.2052   estimate D2E/DX2                          !
 !       A16       119.7905   estimate D2E/DX2                          !
 !       A17       123.908    estimate D2E/DX2                          !
 !       A18       116.4502   estimate D2E/DX2                          !
 !       A19       119.9474   estimate D2E/DX2                          !
 !       A20       121.456    estimate D2E/DX2                          !
 !       A21       121.7019   estimate D2E/DX2                          !
 !       D4        176.574    estimate D2E/DX2                          !
 !       D5       -102.1265   estimate D2E/DX2                          !
 !       D6        109.1202   estimate D2E/DX2                          !
 !       D7          1.2267   estimate D2E/DX2                          !
 !       D8       -178.9189   estimate D2E/DX2                          !
 !       D9          1.2738   estimate D2E/DX2                          !
 !       D10      -179.0196   estimate D2E/DX2                          !
 !       D11      -177.7736   estimate D2E/DX2                          !
 !       D12       122.2053   estimate D2E/DX2                          !
 !       D13      -121.2739   estimate D2E/DX2                          !
 !       D14      -180.2611   estimate D2E/DX2                          !
 !       D15      -179.4487   estimate D2E/DX2                          !
 !       D16       180.2471   estimate D2E/DX2                          !
 !       D17      -100.0216   estimate D2E/DX2                          !
 !       D18       177.2648   estimate D2E/DX2                          !
 !       D19       179.374    estimate D2E/DX2                          !
 !       D20       177.9332   estimate D2E/DX2                          !
 !       D21      -179.076    estimate D2E/DX2                          !
 ------------------------------------------------------------------------
 Trust Radius=1.00D-01 FncErr=1.00D-07 GrdErr=1.00D-06 EigMax=2.50D+02 EigMin=1.00D-04
 Number of steps in this run=     67 maximum allowed number of steps=    114.
 GradGradGradGradGradGradGradGradGradGradGradGradGradGradGradGradGradGrad

 ---------------------------------------------------------------------------------------------------
                            Z-MATRIX (ANGSTROMS AND DEGREES)
   CD    Cent   Atom    N1       Length/X        N2       Alpha/Y        N3        Beta/Z          J
 ---------------------------------------------------------------------------------------------------
      1      1  C 
      2      2  C        1   1.388511(     1)
      3      3  S        1   1.817725(     2)      2  117.940(    21)
      4      4  C        1   1.390957(     3)      2  120.996(    22)      3  176.574(    40)      0
      5      5  C        3   1.869079(     4)      1   96.383(    23)      2 -102.126(    41)      0
      6      6  O        3   1.482435(     5)      1  106.558(    24)      5  109.120(    42)      0
      7      7  H        2   1.082950(     6)      1  118.836(    25)      3    1.227(    43)      0
      8      8  C        2   1.390949(     7)      1  119.274(    26)      7 -178.919(    44)      0
      9      9  C        4   1.389807(     8)      1  119.406(    27)      2    1.274(    45)      0
     10     10  H        4   1.084258(     9)      1  120.279(    28)      9 -179.020(    46)      0
     11     11  C        5   1.489232(    10)      3  109.869(    29)      1 -177.774(    47)      0
     12     12  H        5   1.092364(    11)      3  106.140(    30)     11  122.205(    48)      0
     13     13  H        5   1.090749(    12)      3  105.009(    31)     11 -121.274(    49)      0
     14     14  H        8   1.082950(    13)      2  119.627(    32)      1 -180.261(    50)      0
     15     15  C        8   1.391109(    14)      2  120.205(    33)     14 -179.449(    51)      0
     16     16  H        9   1.083571(    15)      4  119.791(    34)      1  180.247(    52)      0
     17     17  C       11   1.327895(    16)      5  123.908(    35)      3 -100.022(    53)      0
     18     18  H       11   1.085896(    17)      5  116.450(    36)     17  177.265(    54)      0
     19     19  H       15   1.083360(    18)      8  119.947(    37)      2  179.374(    55)      0
     20     20  H       17   1.081942(    19)     11  121.456(    38)      5  177.933(    56)      0
     21     21  H       17   1.083413(    20)     11  121.702(    39)     20 -179.076(    57)      0
 ---------------------------------------------------------------------------------------------------
                         Z-Matrix orientation:                         
 ---------------------------------------------------------------------
 Center     Atomic      Atomic             Coordinates (Angstroms)
 Number     Number       Type             X           Y           Z
 ---------------------------------------------------------------------
      1          6           0        0.000000    0.000000    0.000000
      2          6           0        0.000000    0.000000    1.388511
      3         16           0        1.605853    0.000000   -0.851680
      4          6           0       -1.190201   -0.071252   -0.716315
      5          6           0        1.606605    1.816044   -1.293766
      6          8           0        2.639905   -0.173017    0.196373
      7          1           0        0.948449    0.020309    1.910825
      8          6           0       -1.212329   -0.048857    2.068666
      9          6           0       -2.397949   -0.116590   -0.030128
     10          1           0       -1.174824   -0.107227   -1.799867
     11          6           0        2.825930    2.144277   -2.083272
     12          1           0        0.682874    1.993768   -1.849099
     13          1           0        1.573925    2.339585   -0.337434
     14          1           0       -1.218829   -0.053413    3.151586
     15          6           0       -2.409468   -0.103198    1.362203
     16          1           0       -3.328656   -0.176208   -0.581813
     17          6           0        3.910030    2.713631   -1.569590
     18          1           0        2.818589    1.851149   -3.128830
     19          1           0       -3.350851   -0.151376    1.896195
     20          1           0        4.787285    2.904773   -2.173318
     21          1           0        3.964475    2.995205   -0.524824
 ---------------------------------------------------------------------
                    Distance matrix (angstroms):
                    1          2          3          4          5
     1  C    0.000000
     2  C    1.388511   0.000000
     3  S    1.817725   2.756306   0.000000
     4  C    1.390957   2.419079   2.800236   0.000000
     5  C    2.748277   3.615771   1.869079   3.423077   0.000000
     6  O    2.652847   2.901763   1.482435   3.938663   2.691577
     7  H    2.133359   1.082950   2.839723   3.388816   3.731921
     8  C    2.398230   1.390949   4.058690   2.785158   4.767619
     9  C    2.400971   2.788600   4.088884   1.389807   4.622587
    10  H    2.152029   3.399626   2.939851   1.084258   3.419277
    11  C    4.113858   4.963575   2.757414   4.786068   1.489232
    12  H    2.803675   3.863100   2.412850   3.009305   1.092364
    13  H    2.839852   3.306022   2.395648   3.687286   1.090749
    14  H    3.379481   2.144023   4.899778   3.868048   5.589195
    15  C    2.769799   2.411821   4.586364   2.409952   5.183291
    16  H    3.383712   3.872102   4.945023   2.145249   5.369613
    17  C    5.011561   5.603792   3.631586   5.873330   2.487471
    18  H    4.600084   5.637159   3.175357   5.058286   2.199455
    19  H    3.853138   3.392471   5.669449   3.391170   6.214737
    20  H    6.006590   6.636447   4.506212   6.834466   3.475007
    21  H    4.996374   5.324393   3.826380   6.000876   2.746132
                    6          7          8          9         10
     6  O    0.000000
     7  H    2.416142   0.000000
     8  C    4.284928   2.167640   0.000000
     9  C    5.043259   3.870972   2.411476   0.000000
    10  H    4.305979   4.277124   3.869154   2.151301   0.000000
    11  C    3.255954   4.897855   6.193219   6.051102   4.599524
    12  H    3.564952   4.254656   4.807597   4.153762   2.804932
    13  H    2.781085   3.290126   4.388301   4.680066   3.959952
    14  H    4.861833   2.498403   1.082950   3.393762   4.951941
    15  C    5.182683   3.404681   1.391109   1.392443   3.394561
    16  H    6.019078   4.954341   3.394126   1.083571   2.475359
    17  C    3.614496   5.304548   6.863440   7.083128   5.819451
    18  H    3.896941   5.678690   6.846334   6.378575   4.642061
    19  H    6.227280   4.302752   2.147913   2.149407   4.289278
    20  H    4.438409   6.303730   7.919200   8.083903   6.690169
    21  H    3.508880   4.886594   6.541544   7.099889   6.137036
                   11         12         13         14         15
    11  C    0.000000
    12  H    2.161060   0.000000
    13  H    2.157223   1.788489   0.000000
    14  H    6.970915   5.728374   5.069435   0.000000
    15  C    6.658216   4.926693   4.972261   2.149882   0.000000
    16  H    6.746700   4.733622   5.515817   4.290072   2.151612
    17  C    1.327895   3.318263   2.667491   7.500082   7.514386
    18  H    1.085896   2.493859   3.095101   7.705305   7.163898
    19  H    7.697974   5.907605   5.953772   2.476110   1.083360
    20  H    2.105559   4.216781   3.743740   8.554465   8.563940
    21  H    2.109294   3.677701   2.485896   7.048170   7.334038
                   16         17         18         19         20
    16  H    0.000000
    17  C    7.856554   0.000000
    18  H    6.956011   2.089581   0.000000
    19  H    2.478232   8.540510   8.205057   0.000000
    20  H    8.825748   1.081942   2.428763   9.598450   0.000000
    21  H    7.953041   1.083413   3.066393   8.323238   1.844648
                   21
    21  H    0.000000
 Symmetry turned off by external request.
 Stoichiometry    C9H10OS
 Framework group  C1[X(C9H10OS)]
 Deg. of freedom    57
 Full point group                 C1      NOp   1
 Rotational constants (GHZ):           2.3696830           0.5234520           0.4880332
 Standard basis: def2TZVP (5D, 7F)
 The following finite field(s) will be applied:
 An electric field of             -0.0073  0.0015 -0.0004
   407 basis functions,   659 primitive gaussians,   462 cartesian basis functions
    44 alpha electrons       44 beta electrons
       nuclear repulsion energy       664.9024369371 Hartrees.
 NAtoms=   21 NActive=   21 NUniq=   21 SFac= 1.00D+00 NAtFMM=   60 NAOKFM=F Big=F
 Integral buffers will be    131072 words long.
 Raffenetti 2 integral format.
 Two-electron integral symmetry is turned off.
 One-electron integrals computed using PRISM.
   1 Symmetry operations used in ECPInt.
 ECPInt:  NShTT=   13366 NPrTT=   41614 LenC2=   12468 LenP2D=   29248.
 LDataN:  DoStor=T MaxTD1= 6 Len=  172
 NBasis=   407 RedAO= T EigKep=  8.67D-06  NBF=   407
 NBsUse=   407 1.00D-06 EigRej= -1.00D+00 NBFU=   407
 The nuclear repulsion energy is now       664.2370107187 hartrees.
 Initial guess from the checkpoint file:  "checkpoint.chk"
 B after Tr=     0.000000    0.000000    0.000000
         Rot=    1.000000    0.000000   -0.000000    0.000000 Ang=   0.00 deg.
 Requested convergence on RMS density matrix=1.00D-08 within 128 cycles.
 Requested convergence on MAX density matrix=1.00D-06.
 Requested convergence on             energy=1.00D-06.
 No special actions if energy rises.
 SCF Done:  E(RB3LYP) =  -822.526924270     A.U. after   10 cycles
            NFock= 10  Conv=0.90D-08     -V/T= 2.0035
   1 Symmetry operations used in ECPInt.
 ECPInt:  NShTT=   13366 NPrTT=   41614 LenC2=   12468 LenP2D=   29248.
 LDataN:  DoStor=T MaxTD1= 7 Len=  274
 Calling FoFJK, ICntrl=      2127 FMM=F ISym2X=0 I1Cent= 0 IOpClX= 0 NMat=1 NMatS=1 NMatT=0.
 -------------------------------------------------------------------
 Center     Atomic                   Forces (Hartrees/Bohr)
 Number     Number              X              Y              Z
 -------------------------------------------------------------------
      1        6           0.000816141    0.001691616   -0.000228597
      2        6          -0.001258260   -0.000494857    0.000174332
      3       16           0.002776198   -0.001607374    0.000778003
      4        6          -0.000407503    0.000108819    0.000310151
      5        6          -0.000073708    0.000277698    0.000086537
      6        8          -0.002084497    0.000265427   -0.001125666
      7        1           0.000244494   -0.000074179   -0.000033423
      8        6           0.000013980    0.000049797    0.000122777
      9        6           0.000205922    0.000100135    0.000053713
     10        1           0.000215504   -0.000055490   -0.000036735
     11        6           0.000010053    0.000040471   -0.000348813
     12        1          -0.000298784    0.000023722   -0.000164737
     13        1           0.000119390    0.000010099    0.000125501
     14        1           0.000113210   -0.000063642    0.000065716
     15        6          -0.000014363    0.000131195   -0.000079122
     16        1          -0.000339494   -0.000107195   -0.000225464
     17        6          -0.000098356    0.000199909    0.000050754
     18        1           0.000062892   -0.000162406    0.000053425
     19        1          -0.000261148   -0.000107692    0.000237521
     20        1           0.000049933   -0.000109034    0.000142561
     21        1           0.000208397   -0.000117018    0.000041567
 -------------------------------------------------------------------
 Cartesian Forces:  Max     0.002776198 RMS     0.000609187
 -----------------------------------------------------------------------------------------------
                       Internal Coordinate Forces (Hartree/Bohr or radian)
  Cent   Atom   N1       Length/X         N2         Alpha/Y        N3         Beta/Z          J
 -----------------------------------------------------------------------------------------------
      1  C 
      2  C        1   0.000488(     1)
      3  S        1   0.000762(     2)      2  -0.002192(    21)
      4  C        1   0.000224(     3)      2   0.000371(    22)      3  -0.000020(    40)     0
      5  C        3   0.000162(     4)      1   0.000903(    23)      2   0.000413(    41)     0
      6  O        3  -0.002281(     5)      1  -0.001941(    24)      5  -0.000063(    42)     0
      7  H        2   0.000197(     6)      1  -0.000300(    25)      3  -0.000090(    43)     0
      8  C        2   0.000299(     7)      1   0.001713(    26)      7   0.000052(    44)     0
      9  C        4   0.000032(     8)      1   0.000607(    27)      2   0.000116(    45)     0
     10  H        4   0.000042(     9)      1  -0.000436(    28)      9   0.000111(    46)     0
     11  C        5   0.000190(    10)      3  -0.001028(    29)      1  -0.000036(    47)     0
     12  H        5   0.000340(    11)      3  -0.000070(    30)     11   0.000011(    48)     0
     13  H        5   0.000111(    12)      3  -0.000104(    31)     11   0.000245(    49)     0
     14  H        8   0.000065(    13)      2  -0.000227(    32)      1  -0.000198(    50)     0
     15  C        8   0.000156(    14)      2   0.000880(    33)     14  -0.000078(    51)     0
     16  H        9   0.000412(    15)      4  -0.000042(    34)      1   0.000151(    52)     0
     17  C       11   0.000210(    16)      5  -0.000251(    35)      3   0.000285(    53)     0
     18  H       11  -0.000008(    17)      5  -0.000021(    36)     17  -0.000334(    54)     0
     19  H       15   0.000349(    18)      8  -0.000155(    37)      2  -0.000166(    55)     0
     20  H       17  -0.000058(    19)     11   0.000191(    38)      5   0.000072(    56)     0
     21  H       17   0.000020(    20)     11   0.000302(    39)     20   0.000334(    57)     0
 -----------------------------------------------------------------------------------------------
 Internal  Forces:  Max     0.002280815 RMS     0.000630499

 GradGradGradGradGradGradGradGradGradGradGradGradGradGradGradGradGradGrad
 Berny optimization.
 Search for a local minimum.
 Step number   1 out of a maximum of   67
 All quantities printed in internal units (Hartrees-Bohrs-Radians)
 Second derivative matrix not updated -- first step.
 ITU=  0
     Eigenvalues ---    0.01986   0.03437   0.03822   0.04887   0.05167
     Eigenvalues ---    0.06553   0.06981   0.07273   0.08902   0.10241
     Eigenvalues ---    0.13000   0.13687   0.17666   0.17884   0.19523
     Eigenvalues ---    0.20379   0.20462   0.21352   0.21568   0.23750
     Eigenvalues ---    0.24769   0.24923   0.25523   0.26476   0.28734
     Eigenvalues ---    0.28923   0.29640   0.29903   0.33534   0.34541
     Eigenvalues ---    0.34726   0.35290   0.35484   0.35566   0.35584
     Eigenvalues ---    0.35592   0.35640   0.35641   0.35760   0.36282
     Eigenvalues ---    0.39961   0.40707   0.47118   0.47214   0.47395
     Eigenvalues ---    0.47889   0.48313   0.49538   0.50875   0.58516
     Eigenvalues ---    0.60004   0.60747   0.79110   0.82809   2.84782
     Eigenvalues ---    4.17584  26.28407
 RFO step:  Lambda=-4.40810205D-05 EMin= 1.98578808D-02
 Linear search not attempted -- first point.
 Variable       Old X    -DE/DX   Delta X   Delta X   Delta X     New X
                                 (Linear)    (Quad)   (Total)
    R2        2.62391   0.00049   0.00000   0.00034   0.00034   2.62425
    R3        3.43500   0.00076   0.00000   0.00308   0.00308   3.43808
    R4        2.62853   0.00022   0.00000   0.00025   0.00025   2.62878
    R5        3.53205   0.00016   0.00000   0.00077   0.00077   3.53282
    R6        2.80140  -0.00228   0.00000  -0.00273  -0.00273   2.79867
    R7        2.04648   0.00020   0.00000   0.00055   0.00055   2.04703
    R8        2.62851   0.00030   0.00000   0.00016   0.00016   2.62867
    R9        2.62635   0.00003   0.00000   0.00054   0.00054   2.62689
   R10        2.04895   0.00004   0.00000   0.00012   0.00012   2.04907
   R11        2.81424   0.00019   0.00000   0.00057   0.00057   2.81481
   R12        2.06427   0.00034   0.00000   0.00099   0.00099   2.06526
   R13        2.06122   0.00011   0.00000   0.00032   0.00032   2.06154
   R14        2.04648   0.00007   0.00000   0.00019   0.00019   2.04667
   R15        2.62881   0.00016   0.00000   0.00055   0.00055   2.62936
   R16        2.04765   0.00041   0.00000   0.00116   0.00116   2.04881
   R17        2.50936   0.00021   0.00000   0.00034   0.00034   2.50970
   R18        2.05205  -0.00001   0.00000  -0.00002  -0.00002   2.05203
   R19        2.04725   0.00035   0.00000   0.00098   0.00098   2.04824
   R20        2.04457  -0.00006   0.00000  -0.00015  -0.00015   2.04442
   R21        2.04735   0.00002   0.00000   0.00005   0.00005   2.04741
    A3        2.05844  -0.00219   0.00000  -0.00322  -0.00322   2.05522
    A4        2.11178   0.00037   0.00000  -0.00069  -0.00069   2.11109
    A5        1.68220   0.00090   0.00000   0.00221   0.00221   1.68441
    A6        1.85978  -0.00194   0.00000  -0.00684  -0.00684   1.85294
    A7        2.07408  -0.00030   0.00000  -0.00124  -0.00124   2.07285
    A8        2.08172   0.00171   0.00000   0.00064   0.00064   2.08236
    A9        2.08402   0.00061   0.00000   0.00045   0.00045   2.08448
   A10        2.09926  -0.00044   0.00000  -0.00163  -0.00163   2.09763
   A11        1.91758  -0.00103   0.00000  -0.00251  -0.00251   1.91507
   A12        1.85249  -0.00007   0.00000   0.00069   0.00069   1.85318
   A13        1.83276  -0.00010   0.00000  -0.00011  -0.00011   1.83265
   A14        2.08789  -0.00023   0.00000  -0.00074  -0.00074   2.08715
   A15        2.09798   0.00088   0.00000  -0.00002  -0.00002   2.09795
   A16        2.09074  -0.00004   0.00000  -0.00013  -0.00013   2.09060
   A17        2.16260  -0.00025   0.00000  -0.00032  -0.00032   2.16229
   A18        2.03244  -0.00002   0.00000   0.00000   0.00000   2.03244
   A19        2.09348  -0.00016   0.00000  -0.00040  -0.00040   2.09307
   A20        2.11981   0.00019   0.00000  -0.00008  -0.00008   2.11973
   A21        2.12410   0.00030   0.00000   0.00103   0.00103   2.12513
    D4        3.08180  -0.00002   0.00000  -0.00194  -0.00194   3.07986
    D5       -1.78244   0.00041   0.00000   0.00329   0.00329  -1.77916
    D6        1.90451  -0.00006   0.00000  -0.00120  -0.00120   1.90331
    D7        0.02141  -0.00009   0.00000   0.00057   0.00057   0.02198
    D8       -3.12272   0.00005   0.00000   0.00219   0.00219  -3.12053
    D9        0.02223   0.00012   0.00000  -0.00120  -0.00120   0.02103
   D10       -3.12448   0.00011   0.00000   0.00261   0.00261  -3.12187
   D11       -3.10273  -0.00004   0.00000   0.00131   0.00131  -3.10143
   D12        2.13288   0.00001   0.00000   0.00034   0.00034   2.13323
   D13       -2.11663   0.00025   0.00000   0.00179   0.00179  -2.11484
   D14       -3.14615  -0.00020   0.00000  -0.00222  -0.00222  -3.14837
   D15       -3.13197  -0.00008   0.00000   0.00226   0.00226  -3.12971
   D16        3.14591   0.00015   0.00000   0.00354   0.00354   3.14945
   D17       -1.74571   0.00028   0.00000   0.00245   0.00245  -1.74326
   D18        3.09385  -0.00033   0.00000  -0.00305  -0.00305   3.09081
   D19        3.13067  -0.00017   0.00000  -0.00347  -0.00347   3.12720
   D20        3.10552   0.00007   0.00000  -0.00132  -0.00132   3.10420
   D21       -3.12547   0.00033   0.00000   0.00231   0.00231  -3.12316
         Item               Value     Threshold  Converged?
 Maximum Force            0.002281     0.000450     NO 
 RMS     Force            0.000630     0.000300     NO 
 Maximum Displacement     0.006839     0.001800     NO 
 RMS     Displacement     0.001825     0.001200     NO 
 Predicted change in Energy=-2.204051D-05
 GradGradGradGradGradGradGradGradGradGradGradGradGradGradGradGradGradGrad

 ---------------------------------------------------------------------------------------------------
                            Z-MATRIX (ANGSTROMS AND DEGREES)
   CD    Cent   Atom    N1       Length/X        N2       Alpha/Y        N3        Beta/Z          J
 ---------------------------------------------------------------------------------------------------
      1      1  C 
      2      2  C        1   1.388692(     1)
      3      3  S        1   1.819353(     2)      2  117.755(    21)
      4      4  C        1   1.391090(     3)      2  120.956(    22)      3  176.463(    40)      0
      5      5  C        3   1.869489(     4)      1   96.510(    23)      2 -101.938(    41)      0
      6      6  O        3   1.480991(     5)      1  106.166(    24)      5  109.051(    42)      0
      7      7  H        2   1.083241(     6)      1  118.765(    25)      3    1.259(    43)      0
      8      8  C        2   1.391034(     7)      1  119.311(    26)      7 -178.793(    44)      0
      9      9  C        4   1.390091(     8)      1  119.432(    27)      2    1.205(    45)      0
     10     10  H        4   1.084321(     9)      1  120.185(    28)      9 -178.870(    46)      0
     11     11  C        5   1.489531(    10)      3  109.725(    29)      1 -177.699(    47)      0
     12     12  H        5   1.092887(    11)      3  106.180(    30)     11  122.225(    48)      0
     13     13  H        5   1.090920(    12)      3  105.003(    31)     11 -121.171(    49)      0
     14     14  H        8   1.083049(    13)      2  119.585(    32)      1 -180.388(    50)      0
     15     15  C        8   1.391399(    14)      2  120.204(    33)     14 -179.319(    51)      0
     16     16  H        9   1.084185(    15)      4  119.783(    34)      1  180.450(    52)      0
     17     17  C       11   1.328077(    16)      5  123.890(    35)      3  -99.881(    53)      0
     18     18  H       11   1.085886(    17)      5  116.450(    36)     17  177.090(    54)      0
     19     19  H       15   1.083881(    18)      8  119.924(    37)      2  179.175(    55)      0
     20     20  H       17   1.081862(    19)     11  121.451(    38)      5  177.857(    56)      0
     21     21  H       17   1.083442(    20)     11  121.761(    39)     20 -178.944(    57)      0
 ---------------------------------------------------------------------------------------------------
                         Z-Matrix orientation:                         
 ---------------------------------------------------------------------
 Center     Atomic      Atomic             Coordinates (Angstroms)
 Number     Number       Type             X           Y           Z
 ---------------------------------------------------------------------
      1          6           0        0.000000    0.000000    0.000000
      2          6           0        0.000000    0.000000    1.388692
      3         16           0        1.610025    0.000000   -0.847268
      4          6           0       -1.190671   -0.073595   -0.715555
      5          6           0        1.618657    1.817263   -1.285984
      6          8           0        2.632245   -0.176142    0.209792
      7          1           0        0.949338    0.020872    1.909973
      8          6           0       -1.211827   -0.052194    2.069666
      9          6           0       -2.398338   -0.122730   -0.028911
     10          1           0       -1.174151   -0.110837   -1.799110
     11          6           0        2.842434    2.138910   -2.071868
     12          1           0        0.696517    2.000399   -1.843227
     13          1           0        1.587513    2.339094   -0.328472
     14          1           0       -1.216738   -0.058793    3.152684
     15          6           0       -2.409494   -0.109932    1.363797
     16          1           0       -3.329330   -0.187537   -0.580736
     17          6           0        3.929319    2.699188   -1.553642
     18          1           0        2.836653    1.846007   -3.117489
     19          1           0       -3.350477   -0.163969    1.898987
     20          1           0        4.809849    2.884616   -2.154233
     21          1           0        3.984335    2.977022   -0.507875
 ---------------------------------------------------------------------
                    Distance matrix (angstroms):
                    1          2          3          4          5
     1  C    0.000000
     2  C    1.388692   0.000000
     3  S    1.819353   2.755303   0.000000
     4  C    1.391090   2.418877   2.804758   0.000000
     5  C    2.752498   3.616128   1.869489   3.434102   0.000000
     6  O    2.646460   2.889557   1.480991   3.934649   2.690421
     7  H    2.132997   1.083241   2.835370   3.388504   3.726815
     8  C    2.398910   1.391034   4.058828   2.785383   4.771467
     9  C    2.401650   2.788671   4.092890   1.390091   4.634657
    10  H    2.151211   3.398970   2.944473   1.084321   3.432293
    11  C    4.116674   4.962846   2.755615   4.795905   1.489531
    12  H    2.807885   3.864199   2.414131   3.022346   1.092887
    13  H    2.845954   3.307599   2.396042   3.699893   1.090920
    14  H    3.379841   2.143730   4.898333   3.868355   5.591138
    15  C    2.770864   2.412129   4.588837   2.410509   5.192438
    16  H    3.384799   3.872758   4.950095   2.145931   5.385087
    17  C    5.013878   5.602008   3.628182   5.882603   2.487689
    18  H    4.601421   5.635602   3.172737   5.066902   2.199717
    19  H    3.854703   3.393078   5.672335   3.392456   6.225882
    20  H    6.008026   6.633850   4.502003   6.843029   3.475170
    21  H    4.999552   5.323021   3.822982   6.010830   2.747167
                    6          7          8          9         10
     6  O    0.000000
     7  H    2.400335   0.000000
     8  C    4.272164   2.168288   0.000000
     9  C    5.036526   3.871282   2.411806   0.000000
    10  H    4.304485   4.275962   3.869404   2.152297   0.000000
    11  C    3.257241   4.891315   6.195989   6.062539   4.611801
    12  H    3.563602   4.250760   4.813071   4.168638   2.821110
    13  H    2.776257   3.285127   4.393818   4.694393   3.973880
    14  H    4.846551   2.498512   1.083049   3.394527   4.952251
    15  C    5.172547   3.405461   1.391399   1.392811   3.395593
    16  H    6.013770   4.955205   3.395109   1.084185   2.476917
    17  C    3.613810   5.296253   6.865119   7.094172   5.831115
    18  H    3.898932   5.671724   6.848353   6.389082   4.653375
    19  H    6.216629   4.303799   2.148359   2.150595   4.291287
    20  H    4.438334   6.294629   7.920023   8.094385   6.701276
    21  H    3.505087   4.878117   6.543697   7.111707   6.149157
                   11         12         13         14         15
    11  C    0.000000
    12  H    2.162504   0.000000
    13  H    2.157389   1.789713   0.000000
    14  H    6.971566   5.732360   5.072686   0.000000
    15  C    6.666621   4.938198   4.983730   2.150674   0.000000
    16  H    6.762137   4.752725   5.533792   4.291625   2.152517
    17  C    1.328077   3.320117   2.667351   7.499191   7.522177
    18  H    1.085886   2.495548   3.095497   7.705408   7.171448
    19  H    7.708637   5.921724   5.967465   2.477026   1.083881
    20  H    2.105607   4.218775   3.743587   8.552589   8.571042
    21  H    2.110081   3.680585   2.486743   7.047484   7.342580
                   16         17         18         19         20
    16  H    0.000000
    17  C    7.871957   0.000000
    18  H    6.970635   2.089846   0.000000
    19  H    2.479925   8.550657   8.214962   0.000000
    20  H    8.840828   1.081862   2.429006   9.607985   0.000000
    21  H    7.969280   1.083442   3.066994   8.334163   1.844047
                   21
    21  H    0.000000
 Symmetry turned off by external request.
 Stoichiometry    C9H10OS
 Framework group  C1[X(C9H10OS)]
 Deg. of freedom    57
 Full point group                 C1      NOp   1
 Rotational constants (GHZ):           2.3793889           0.5227425           0.4874410
 Standard basis: def2TZVP (5D, 7F)
 The following finite field(s) will be applied:
 An electric field of             -0.0073  0.0015 -0.0004
   407 basis functions,   659 primitive gaussians,   462 cartesian basis functions
    44 alpha electrons       44 beta electrons
       nuclear repulsion energy       664.8552091539 Hartrees.
 NAtoms=   21 NActive=   21 NUniq=   21 SFac= 1.00D+00 NAtFMM=   60 NAOKFM=F Big=F
 Integral buffers will be    131072 words long.
 Raffenetti 2 integral format.
 Two-electron integral symmetry is turned off.
 One-electron integrals computed using PRISM.
   1 Symmetry operations used in ECPInt.
 ECPInt:  NShTT=   13366 NPrTT=   41614 LenC2=   12464 LenP2D=   29240.
 LDataN:  DoStor=T MaxTD1= 6 Len=  172
 NBasis=   407 RedAO= T EigKep=  8.69D-06  NBF=   407
 NBsUse=   407 1.00D-06 EigRej= -1.00D+00 NBFU=   407
 The nuclear repulsion energy is now       664.1831987108 hartrees.
 Initial guess from the checkpoint file:  "checkpoint.chk"
 B after Tr=     0.005424   -0.005142    0.006366
         Rot=    0.999999   -0.000565    0.001123    0.000854 Ang=  -0.17 deg.
 Requested convergence on RMS density matrix=1.00D-08 within 128 cycles.
 Requested convergence on MAX density matrix=1.00D-06.
 Requested convergence on             energy=1.00D-06.
 No special actions if energy rises.
 SCF Done:  E(RB3LYP) =  -822.526951452     A.U. after    9 cycles
            NFock=  9  Conv=0.97D-08     -V/T= 2.0035
   1 Symmetry operations used in ECPInt.
 ECPInt:  NShTT=   13366 NPrTT=   41614 LenC2=   12464 LenP2D=   29240.
 LDataN:  DoStor=T MaxTD1= 7 Len=  274
 Calling FoFJK, ICntrl=      2127 FMM=F ISym2X=0 I1Cent= 0 IOpClX= 0 NMat=1 NMatS=1 NMatT=0.
 -------------------------------------------------------------------
 Center     Atomic                   Forces (Hartrees/Bohr)
 Number     Number              X              Y              Z
 -------------------------------------------------------------------
      1        6           0.000538162    0.001823452   -0.000348451
      2        6          -0.001135522   -0.000545025    0.000152632
      3       16           0.001044383   -0.001272634    0.000714886
      4        6          -0.000131718    0.000040741    0.000273939
      5        6          -0.000166073    0.000111225   -0.000071974
      6        8          -0.000343731   -0.000016219   -0.000507094
      7        1           0.000007902   -0.000052273   -0.000049261
      8        6           0.000021760    0.000006975   -0.000038580
      9        6           0.000014566   -0.000009255    0.000041876
     10        1           0.000021784    0.000001594   -0.000020383
     11        6           0.000047714    0.000088144   -0.000130363
     12        1           0.000011757    0.000017028   -0.000016074
     13        1           0.000017285   -0.000073587    0.000012430
     14        1           0.000020048   -0.000009760   -0.000003700
     15        6          -0.000013789    0.000024690   -0.000089007
     16        1           0.000003617    0.000002082   -0.000004492
     17        6          -0.000125436    0.000032510   -0.000003836
     18        1           0.000028794   -0.000020018    0.000021645
     19        1           0.000006589   -0.000000764   -0.000004087
     20        1           0.000081693   -0.000108560    0.000063300
     21        1           0.000050216   -0.000040345    0.000006594
 -------------------------------------------------------------------
 Cartesian Forces:  Max     0.001823452 RMS     0.000381729
 -----------------------------------------------------------------------------------------------
                       Internal Coordinate Forces (Hartree/Bohr or radian)
  Cent   Atom   N1       Length/X         N2         Alpha/Y        N3         Beta/Z          J
 -----------------------------------------------------------------------------------------------
      1  C 
      2  C        1  -0.000032(     1)
      3  S        1   0.000531(     2)      2  -0.001286(    21)
      4  C        1  -0.000073(     3)      2  -0.000829(    22)      3   0.000075(    40)     0
      5  C        3   0.000034(     4)      1   0.000586(    23)      2   0.000275(    41)     0
      6  O        3  -0.000597(     5)      1   0.000286(    24)      5   0.000246(    42)     0
      7  H        2  -0.000018(     6)      1  -0.000095(    25)      3  -0.000192(    43)     0
      8  C        2  -0.000097(     7)      1  -0.000428(    26)      7  -0.000098(    44)     0
      9  C        4   0.000003(     8)      1  -0.000096(    27)      2  -0.000023(    45)     0
     10  H        4   0.000021(     9)      1  -0.000044(    28)      9  -0.000003(    46)     0
     11  C        5   0.000080(    10)      3  -0.000590(    29)      1  -0.000150(    47)     0
     12  H        5   0.000001(    11)      3   0.000043(    30)     11  -0.000031(    48)     0
     13  H        5  -0.000025(    12)      3  -0.000145(    31)     11   0.000035(    49)     0
     14  H        8  -0.000004(    13)      2  -0.000040(    32)      1  -0.000075(    50)     0
     15  C        8   0.000052(    14)      2  -0.000203(    33)     14  -0.000056(    51)     0
     16  H        9  -0.000001(    15)      4  -0.000012(    34)      1  -0.000004(    52)     0
     17  C       11  -0.000018(    16)      5  -0.000169(    35)      3   0.000280(    53)     0
     18  H       11  -0.000016(    17)      5   0.000034(    36)     17  -0.000063(    54)     0
     19  H       15  -0.000008(    18)      8   0.000001(    37)      2  -0.000002(    55)     0
     20  H       17   0.000013(    19)     11   0.000094(    38)      5  -0.000150(    56)     0
     21  H       17  -0.000001(    20)     11   0.000066(    39)     20   0.000098(    57)     0
 -----------------------------------------------------------------------------------------------
 Internal  Forces:  Max     0.001286393 RMS     0.000278784

 GradGradGradGradGradGradGradGradGradGradGradGradGradGradGradGradGradGrad
 Berny optimization.
 Search for a local minimum.
 Step number   2 out of a maximum of   67
 All quantities printed in internal units (Hartrees-Bohrs-Radians)
 Update second derivatives using D2CorN and points    1    2
 DE= -2.72D-05 DEPred=-2.20D-05 R= 1.23D+00
 TightC=F SS=  1.41D+00  RLast= 1.38D-02 DXNew= 1.6818D-01 4.1341D-02
 Trust test= 1.23D+00 RLast= 1.38D-02 DXMaxT set to 1.00D-01
 ITU=  1  0
     Eigenvalues ---    0.02081   0.03311   0.03516   0.04705   0.05184
     Eigenvalues ---    0.06439   0.06981   0.07244   0.08877   0.10042
     Eigenvalues ---    0.12984   0.13686   0.17547   0.17799   0.19370
     Eigenvalues ---    0.20164   0.20475   0.21357   0.21612   0.23671
     Eigenvalues ---    0.23767   0.24979   0.25599   0.26390   0.28917
     Eigenvalues ---    0.29008   0.29604   0.29904   0.33513   0.34536
     Eigenvalues ---    0.34730   0.35290   0.35481   0.35556   0.35584
     Eigenvalues ---    0.35590   0.35641   0.35644   0.35762   0.36132
     Eigenvalues ---    0.39715   0.40680   0.47109   0.47225   0.47370
     Eigenvalues ---    0.47899   0.47924   0.49509   0.50856   0.58344
     Eigenvalues ---    0.60007   0.60741   0.77542   0.82248   2.84771
     Eigenvalues ---    4.17584  26.28444
 RFO step:  Lambda=-1.24154427D-05 EMin= 2.08122417D-02
 Quartic linear search produced a step of  0.30034.
 Variable       Old X    -DE/DX   Delta X   Delta X   Delta X     New X
                                 (Linear)    (Quad)   (Total)
    R2        2.62425  -0.00003   0.00010   0.00003   0.00013   2.62438
    R3        3.43808   0.00053   0.00092   0.00242   0.00334   3.44142
    R4        2.62878  -0.00007   0.00008  -0.00021  -0.00014   2.62864
    R5        3.53282   0.00003   0.00023   0.00010   0.00034   3.53316
    R6        2.79867  -0.00060  -0.00082  -0.00027  -0.00109   2.79757
    R7        2.04703  -0.00002   0.00017  -0.00019  -0.00002   2.04701
    R8        2.62867  -0.00010   0.00005  -0.00017  -0.00013   2.62855
    R9        2.62689   0.00000   0.00016  -0.00027  -0.00011   2.62678
   R10        2.04907   0.00002   0.00004   0.00006   0.00009   2.04916
   R11        2.81481   0.00008   0.00017   0.00021   0.00038   2.81519
   R12        2.06526   0.00000   0.00030  -0.00021   0.00009   2.06535
   R13        2.06154  -0.00002   0.00010  -0.00017  -0.00007   2.06147
   R14        2.04667  -0.00000   0.00006  -0.00005   0.00000   2.04667
   R15        2.62936   0.00005   0.00016  -0.00003   0.00013   2.62950
   R16        2.04881  -0.00000   0.00035  -0.00026   0.00009   2.04890
   R17        2.50970  -0.00002   0.00010  -0.00014  -0.00003   2.50967
   R18        2.05203  -0.00002  -0.00001  -0.00005  -0.00006   2.05197
   R19        2.04824  -0.00001   0.00030  -0.00025   0.00005   2.04829
   R20        2.04442   0.00001  -0.00005   0.00010   0.00005   2.04448
   R21        2.04741  -0.00000   0.00002  -0.00002  -0.00001   2.04740
    A3        2.05522  -0.00129  -0.00097  -0.00204  -0.00300   2.05221
    A4        2.11109  -0.00083  -0.00021   0.00019  -0.00001   2.11107
    A5        1.68441   0.00059   0.00066   0.00160   0.00226   1.68667
    A6        1.85294   0.00029  -0.00205   0.00317   0.00111   1.85406
    A7        2.07285  -0.00010  -0.00037  -0.00009  -0.00046   2.07239
    A8        2.08236  -0.00043   0.00019  -0.00033  -0.00014   2.08223
    A9        2.08448  -0.00010   0.00014   0.00005   0.00019   2.08467
   A10        2.09763  -0.00004  -0.00049   0.00004  -0.00045   2.09718
   A11        1.91507  -0.00059  -0.00075  -0.00107  -0.00182   1.91325
   A12        1.85318   0.00004   0.00021   0.00125   0.00146   1.85464
   A13        1.83265  -0.00015  -0.00003  -0.00100  -0.00104   1.83162
   A14        2.08715  -0.00004  -0.00022  -0.00006  -0.00028   2.08686
   A15        2.09795  -0.00020  -0.00001   0.00007   0.00006   2.09802
   A16        2.09060  -0.00001  -0.00004   0.00003  -0.00001   2.09060
   A17        2.16229  -0.00017  -0.00009  -0.00015  -0.00025   2.16204
   A18        2.03244   0.00003   0.00000   0.00011   0.00011   2.03256
   A19        2.09307   0.00000  -0.00012   0.00005  -0.00007   2.09301
   A20        2.11973   0.00009  -0.00002  -0.00004  -0.00006   2.11966
   A21        2.12513   0.00007   0.00031   0.00022   0.00053   2.12566
    D4        3.07986   0.00008  -0.00058   0.00385   0.00327   3.08313
    D5       -1.77916   0.00028   0.00099   0.00105   0.00204  -1.77712
    D6        1.90331   0.00025  -0.00036   0.00240   0.00204   1.90534
    D7        0.02198  -0.00019   0.00017  -0.00376  -0.00359   0.01839
    D8       -3.12053  -0.00010   0.00066   0.00077   0.00142  -3.11911
    D9        0.02103  -0.00002  -0.00036  -0.00124  -0.00160   0.01943
   D10       -3.12187  -0.00000   0.00078   0.00024   0.00102  -3.12085
   D11       -3.10143  -0.00015   0.00039  -0.00002   0.00038  -3.10105
   D12        2.13323  -0.00003   0.00010   0.00058   0.00068   2.13391
   D13       -2.11484   0.00003   0.00054   0.00110   0.00164  -2.11320
   D14       -3.14837  -0.00007  -0.00067  -0.00130  -0.00197  -3.15034
   D15       -3.12971  -0.00006   0.00068   0.00117   0.00185  -3.12786
   D16        3.14945  -0.00000   0.00106   0.00052   0.00158   3.15103
   D17       -1.74326   0.00028   0.00073   0.00517   0.00590  -1.73736
   D18        3.09081  -0.00006  -0.00091  -0.00299  -0.00391   3.08690
   D19        3.12720  -0.00000  -0.00104  -0.00038  -0.00142   3.12577
   D20        3.10420  -0.00015  -0.00040  -0.00362  -0.00402   3.10018
   D21       -3.12316   0.00010   0.00069   0.00168   0.00237  -3.12079
         Item               Value     Threshold  Converged?
 Maximum Force            0.001286     0.000450     NO 
 RMS     Force            0.000279     0.000300     YES
 Maximum Displacement     0.005902     0.001800     NO 
 RMS     Displacement     0.001675     0.001200     NO 
 Predicted change in Energy=-6.392670D-06
 GradGradGradGradGradGradGradGradGradGradGradGradGradGradGradGradGradGrad

 ---------------------------------------------------------------------------------------------------
                            Z-MATRIX (ANGSTROMS AND DEGREES)
   CD    Cent   Atom    N1       Length/X        N2       Alpha/Y        N3        Beta/Z          J
 ---------------------------------------------------------------------------------------------------
      1      1  C 
      2      2  C        1   1.388760(     1)
      3      3  S        1   1.821120(     2)      2  117.583(    21)
      4      4  C        1   1.391017(     3)      2  120.955(    22)      3  176.650(    40)      0
      5      5  C        3   1.869668(     4)      1   96.639(    23)      2 -101.821(    41)      0
      6      6  O        3   1.480412(     5)      1  106.230(    24)      5  109.168(    42)      0
      7      7  H        2   1.083229(     6)      1  118.739(    25)      3    1.054(    43)      0
      8      8  C        2   1.390967(     7)      1  119.303(    26)      7 -178.712(    44)      0
      9      9  C        4   1.390033(     8)      1  119.443(    27)      2    1.114(    45)      0
     10     10  H        4   1.084369(     9)      1  120.159(    28)      9 -178.811(    46)      0
     11     11  C        5   1.489733(    10)      3  109.621(    29)      1 -177.677(    47)      0
     12     12  H        5   1.092934(    11)      3  106.263(    30)     11  122.264(    48)      0
     13     13  H        5   1.090882(    12)      3  104.944(    31)     11 -121.078(    49)      0
     14     14  H        8   1.083050(    13)      2  119.568(    32)      1 -180.501(    50)      0
     15     15  C        8   1.391470(    14)      2  120.208(    33)     14 -179.213(    51)      0
     16     16  H        9   1.084232(    15)      4  119.782(    34)      1  180.541(    52)      0
     17     17  C       11   1.328060(    16)      5  123.876(    35)      3  -99.543(    53)      0
     18     18  H       11   1.085857(    17)      5  116.457(    36)     17  176.866(    54)      0
     19     19  H       15   1.083906(    18)      8  119.920(    37)      2  179.094(    55)      0
     20     20  H       17   1.081890(    19)     11  121.448(    38)      5  177.627(    56)      0
     21     21  H       17   1.083438(    20)     11  121.791(    39)     20 -178.808(    57)      0
 ---------------------------------------------------------------------------------------------------
                         Z-Matrix orientation:                         
 ---------------------------------------------------------------------
 Center     Atomic      Atomic             Coordinates (Angstroms)
 Number     Number       Type             X           Y           Z
 ---------------------------------------------------------------------
      1          6           0        0.000000    0.000000    0.000000
      2          6           0        0.000000    0.000000    1.388760
      3         16           0        1.614130    0.000000   -0.843245
      4          6           0       -1.190853   -0.069702   -0.715499
      5          6           0        1.629565    1.817743   -1.280543
      6          8           0        2.633626   -0.181763    0.214683
      7          1           0        0.949634    0.017468    1.909601
      8          6           0       -1.211971   -0.049572    2.069537
      9          6           0       -2.398651   -0.116832   -0.029064
     10          1           0       -1.174003   -0.106440   -1.799115
     11          6           0        2.857674    2.133786   -2.062315
     12          1           0        0.709733    2.005768   -1.840063
     13          1           0        1.598719    2.337909   -0.322160
     14          1           0       -1.216668   -0.058008    3.152544
     15          6           0       -2.409777   -0.104570    1.363545
     16          1           0       -3.329704   -0.180095   -0.581058
     17          6           0        3.947493    2.683272   -1.538767
     18          1           0        2.853557    1.842569   -3.108384
     19          1           0       -3.350832   -0.157908    1.898731
     20          1           0        4.832139    2.861511   -2.135522
     21          1           0        4.002054    2.957195   -0.491948
 ---------------------------------------------------------------------
                    Distance matrix (angstroms):
                    1          2          3          4          5
     1  C    0.000000
     2  C    1.388760   0.000000
     3  S    1.821120   2.754498   0.000000
     4  C    1.391017   2.418863   2.808755   0.000000
     5  C    2.756712   3.617299   1.869668   3.440418   0.000000
     6  O    2.648606   2.889201   1.480412   3.937567   2.691071
     7  H    2.132765   1.083229   2.831964   3.388279   3.725630
     8  C    2.398816   1.390967   4.058769   2.785189   4.773283
     9  C    2.401670   2.788799   4.096211   1.390033   4.640614
    10  H    2.150913   3.398847   2.949356   1.084369   3.439678
    11  C    4.119768   4.962788   2.754192   4.802066   1.489733
    12  H    2.812944   3.866797   2.415509   3.030585   1.092934
    13  H    2.850527   3.308922   2.395325   3.705808   1.090882
    14  H    3.379671   2.143497   4.897255   3.868147   5.592114
    15  C    2.770778   2.412176   4.590499   2.410273   5.196419
    16  H    3.384817   3.872924   4.954056   2.145913   5.392122
    17  C    5.015022   5.599380   3.623297   5.887209   2.487692
    18  H    4.604335   5.635792   3.172081   5.073454   2.199949
    19  H    3.854632   3.393093   5.673994   3.392269   6.230195
    20  H    6.008183   6.630111   4.495977   6.847255   3.475187
    21  H    5.000345   5.319634   3.817145   6.014845   2.747533
                    6          7          8          9         10
     6  O    0.000000
     7  H    2.397555   0.000000
     8  C    4.271601   2.168551   0.000000
     9  C    5.038595   3.871365   2.411816   0.000000
    10  H    4.308026   4.275484   3.869257   2.152430   0.000000
    11  C    3.255255   4.888306   6.196876   6.068636   4.619773
    12  H    3.564917   4.250984   4.816881   4.176984   2.830470
    13  H    2.776325   3.284283   4.395481   4.700066   3.980480
    14  H    4.844699   2.498693   1.083050   3.394580   4.952080
    15  C    5.173176   3.405688   1.391470   1.392707   3.395520
    16  H    6.016187   4.955315   3.395215   1.084232   2.477122
    17  C    3.606835   5.290076   6.863553   7.098825   5.837807
    18  H    3.897315   5.668871   6.849788   6.395870   4.661980
    19  H    6.216938   4.304054   2.148403   2.150518   4.291305
    20  H    4.429271   6.286926   7.917588   8.098890   6.707879
    21  H    3.496424   4.871006   6.541247   7.115682   6.155169
                   11         12         13         14         15
    11  C    0.000000
    12  H    2.163200   0.000000
    13  H    2.157493   1.790151   0.000000
    14  H    6.971297   5.735531   5.073498   0.000000
    15  C    6.670292   4.944489   4.987518   2.150859   0.000000
    16  H    6.769919   4.762367   5.540462   4.291807   2.152545
    17  C    1.328060   3.321577   2.667611   7.496103   7.523985
    18  H    1.085857   2.496248   3.095646   7.705722   7.175805
    19  H    7.712800   5.928596   5.971558   2.477233   1.083906
    20  H    2.105577   4.220642   3.743988   8.548409   8.572424
    21  H    2.110370   3.682662   2.487642   7.043354   7.343625
                   16         17         18         19         20
    16  H    0.000000
    17  C    7.878684   0.000000
    18  H    6.979345   2.089779   0.000000
    19  H    2.479978   8.553024   8.219948   0.000000
    20  H    8.847791   1.081890   2.428887   9.610052   0.000000
    21  H    7.975287   1.083438   3.067111   8.335715   1.843781
                   21
    21  H    0.000000
 Symmetry turned off by external request.
 Stoichiometry    C9H10OS
 Framework group  C1[X(C9H10OS)]
 Deg. of freedom    57
 Full point group                 C1      NOp   1
 Rotational constants (GHZ):           2.3838579           0.5223389           0.4870652
 Standard basis: def2TZVP (5D, 7F)
 The following finite field(s) will be applied:
 An electric field of             -0.0073  0.0015 -0.0004
   407 basis functions,   659 primitive gaussians,   462 cartesian basis functions
    44 alpha electrons       44 beta electrons
       nuclear repulsion energy       664.7771408226 Hartrees.
 NAtoms=   21 NActive=   21 NUniq=   21 SFac= 1.00D+00 NAtFMM=   60 NAOKFM=F Big=F
 Integral buffers will be    131072 words long.
 Raffenetti 2 integral format.
 Two-electron integral symmetry is turned off.
 One-electron integrals computed using PRISM.
   1 Symmetry operations used in ECPInt.
 ECPInt:  NShTT=   13366 NPrTT=   41614 LenC2=   12464 LenP2D=   29240.
 LDataN:  DoStor=T MaxTD1= 6 Len=  172
 NBasis=   407 RedAO= T EigKep=  8.69D-06  NBF=   407
 NBsUse=   407 1.00D-06 EigRej= -1.00D+00 NBFU=   407
 The nuclear repulsion energy is now       664.0988178293 hartrees.
 Initial guess from the checkpoint file:  "checkpoint.chk"
 B after Tr=     0.004640    0.001957    0.003416
         Rot=    0.999998   -0.000835    0.000781    0.001785 Ang=  -0.24 deg.
 Requested convergence on RMS density matrix=1.00D-08 within 128 cycles.
 Requested convergence on MAX density matrix=1.00D-06.
 Requested convergence on             energy=1.00D-06.
 No special actions if energy rises.
 SCF Done:  E(RB3LYP) =  -822.526959040     A.U. after    9 cycles
            NFock=  9  Conv=0.47D-08     -V/T= 2.0035
   1 Symmetry operations used in ECPInt.
 ECPInt:  NShTT=   13366 NPrTT=   41614 LenC2=   12464 LenP2D=   29240.
 LDataN:  DoStor=T MaxTD1= 7 Len=  274
 Calling FoFJK, ICntrl=      2127 FMM=F ISym2X=0 I1Cent= 0 IOpClX= 0 NMat=1 NMatS=1 NMatT=0.
 -------------------------------------------------------------------
 Center     Atomic                   Forces (Hartrees/Bohr)
 Number     Number              X              Y              Z
 -------------------------------------------------------------------
      1        6           0.001171962    0.002344491   -0.000041266
      2        6          -0.001290238   -0.000680122    0.000045603
      3       16           0.000191378   -0.001717155   -0.000286625
      4        6           0.000176609   -0.000055646   -0.000034496
      5        6          -0.000090112    0.000081306    0.000146063
      6        8          -0.000194209    0.000124582    0.000023663
      7        1          -0.000009929    0.000010602    0.000023416
      8        6           0.000034618   -0.000128684    0.000027278
      9        6          -0.000011257   -0.000028273    0.000035088
     10        1          -0.000018699    0.000026612   -0.000002437
     11        6           0.000011466   -0.000069582   -0.000024092
     12        1           0.000040855   -0.000063459    0.000045215
     13        1          -0.000028462    0.000058641   -0.000014177
     14        1          -0.000027362    0.000057732    0.000005457
     15        6          -0.000016538   -0.000018221    0.000018637
     16        1           0.000033001    0.000036305    0.000012579
     17        6           0.000010987   -0.000031336    0.000004447
     18        1          -0.000015797    0.000049210   -0.000005969
     19        1           0.000018147    0.000039379   -0.000008343
     20        1           0.000029677   -0.000028076    0.000028825
     21        1          -0.000016099   -0.000008306    0.000001133
 -------------------------------------------------------------------
 Cartesian Forces:  Max     0.002344491 RMS     0.000440966
 -----------------------------------------------------------------------------------------------
                       Internal Coordinate Forces (Hartree/Bohr or radian)
  Cent   Atom   N1       Length/X         N2         Alpha/Y        N3         Beta/Z          J
 -----------------------------------------------------------------------------------------------
      1  C 
      2  C        1   0.000112(     1)
      3  S        1  -0.000016(     2)      2  -0.000233(    21)
      4  C        1  -0.000158(     3)      2   0.000058(    22)      3   0.000006(    40)     0
      5  C        3  -0.000054(     4)      1  -0.000097(    23)      2   0.000204(    41)     0
      6  O        3  -0.000132(     5)      1  -0.000426(    24)      5  -0.000308(    42)     0
      7  H        2   0.000003(     6)      1   0.000052(    25)      3   0.000017(    43)     0
      8  C        2   0.000015(     7)      1   0.000081(    26)      7  -0.000002(    44)     0
      9  C        4   0.000004(     8)      1  -0.000125(    27)      2  -0.000034(    45)     0
     10  H        4   0.000001(     9)      1   0.000036(    28)      9  -0.000048(    46)     0
     11  C        5  -0.000004(    10)      3  -0.000373(    29)      1  -0.000107(    47)     0
     12  H        5  -0.000068(    11)      3  -0.000114(    30)     11   0.000012(    48)     0
     13  H        5   0.000016(    12)      3   0.000119(    31)     11  -0.000058(    49)     0
     14  H        8   0.000005(    13)      2   0.000052(    32)      1   0.000057(    50)     0
     15  C        8  -0.000007(    14)      2   0.000026(    33)     14  -0.000047(    51)     0
     16  H        9  -0.000037(    15)      4  -0.000013(    34)      1  -0.000061(    52)     0
     17  C       11   0.000006(    16)      5  -0.000138(    35)      3   0.000253(    53)     0
     18  H       11  -0.000007(    17)      5   0.000009(    36)     17   0.000094(    54)     0
     19  H       15  -0.000022(    18)      8  -0.000005(    37)      2   0.000068(    55)     0
     20  H       17   0.000004(    19)     11   0.000053(    38)      5  -0.000071(    56)     0
     21  H       17  -0.000002(    20)     11  -0.000037(    39)     20   0.000004(    57)     0
 -----------------------------------------------------------------------------------------------
 Internal  Forces:  Max     0.000425874 RMS     0.000116980

 GradGradGradGradGradGradGradGradGradGradGradGradGradGradGradGradGradGrad
 Berny optimization.
 Search for a local minimum.
 Step number   3 out of a maximum of   67
 All quantities printed in internal units (Hartrees-Bohrs-Radians)
 Update second derivatives using D2CorN and points    1    2    3
 DE= -7.59D-06 DEPred=-6.39D-06 R= 1.19D+00
 TightC=F SS=  1.41D+00  RLast= 1.26D-02 DXNew= 1.6818D-01 3.7945D-02
 Trust test= 1.19D+00 RLast= 1.26D-02 DXMaxT set to 1.00D-01
 ITU=  1  1  0
     Eigenvalues ---    0.02338   0.02965   0.03755   0.04567   0.05194
     Eigenvalues ---    0.06300   0.06967   0.07236   0.08899   0.10061
     Eigenvalues ---    0.12997   0.13687   0.16692   0.17837   0.19437
     Eigenvalues ---    0.20355   0.20654   0.21365   0.21631   0.23442
     Eigenvalues ---    0.23769   0.25104   0.25640   0.26462   0.28920
     Eigenvalues ---    0.29106   0.29652   0.29906   0.33509   0.34556
     Eigenvalues ---    0.34732   0.35290   0.35479   0.35563   0.35584
     Eigenvalues ---    0.35592   0.35641   0.35645   0.35763   0.36021
     Eigenvalues ---    0.39635   0.40677   0.47120   0.47228   0.47286
     Eigenvalues ---    0.47685   0.47903   0.49502   0.50857   0.58293
     Eigenvalues ---    0.60009   0.60760   0.76787   0.82174   2.84762
     Eigenvalues ---    4.17583  26.28450
 RFO step:  Lambda=-5.10993213D-06 EMin= 2.33772981D-02
 Quartic linear search produced a step of  0.08122.
 Variable       Old X    -DE/DX   Delta X   Delta X   Delta X     New X
                                 (Linear)    (Quad)   (Total)
    R2        2.62438   0.00011   0.00001   0.00028   0.00029   2.62467
    R3        3.44142  -0.00002   0.00027   0.00040   0.00067   3.44209
    R4        2.62864  -0.00016  -0.00001  -0.00043  -0.00044   2.62820
    R5        3.53316  -0.00005   0.00003  -0.00026  -0.00023   3.53293
    R6        2.79757  -0.00013  -0.00009  -0.00031  -0.00040   2.79717
    R7        2.04701   0.00000  -0.00000   0.00002   0.00002   2.04703
    R8        2.62855   0.00002  -0.00001  -0.00003  -0.00004   2.62851
    R9        2.62678   0.00000  -0.00001   0.00007   0.00006   2.62685
   R10        2.04916   0.00000   0.00001   0.00002   0.00002   2.04919
   R11        2.81519  -0.00000   0.00003   0.00004   0.00007   2.81525
   R12        2.06535  -0.00007   0.00001  -0.00023  -0.00022   2.06512
   R13        2.06147   0.00002  -0.00001   0.00006   0.00005   2.06152
   R14        2.04667   0.00001   0.00000   0.00002   0.00002   2.04669
   R15        2.62950  -0.00001   0.00001  -0.00002  -0.00001   2.62949
   R16        2.04890  -0.00004   0.00001  -0.00010  -0.00010   2.04881
   R17        2.50967   0.00001  -0.00000   0.00001   0.00001   2.50968
   R18        2.05197  -0.00001  -0.00000  -0.00003  -0.00003   2.05194
   R19        2.04829  -0.00002   0.00000  -0.00006  -0.00005   2.04823
   R20        2.04448   0.00000   0.00000   0.00002   0.00003   2.04450
   R21        2.04740  -0.00000  -0.00000  -0.00001  -0.00001   2.04739
    A3        2.05221  -0.00023  -0.00024  -0.00055  -0.00079   2.05142
    A4        2.11107   0.00006  -0.00000   0.00032   0.00032   2.11139
    A5        1.68667  -0.00010   0.00018  -0.00107  -0.00089   1.68578
    A6        1.85406  -0.00043   0.00009  -0.00238  -0.00229   1.85177
    A7        2.07239   0.00005  -0.00004   0.00014   0.00010   2.07249
    A8        2.08223   0.00008  -0.00001  -0.00003  -0.00004   2.08219
    A9        2.08467  -0.00012   0.00002  -0.00036  -0.00035   2.08432
   A10        2.09718   0.00004  -0.00004   0.00026   0.00022   2.09740
   A11        1.91325  -0.00037  -0.00015  -0.00162  -0.00177   1.91149
   A12        1.85464  -0.00011   0.00012   0.00003   0.00015   1.85479
   A13        1.83162   0.00012  -0.00008   0.00071   0.00063   1.83225
   A14        2.08686   0.00005  -0.00002   0.00028   0.00025   2.08712
   A15        2.09802   0.00003   0.00001  -0.00020  -0.00019   2.09782
   A16        2.09060  -0.00001  -0.00000  -0.00018  -0.00018   2.09042
   A17        2.16204  -0.00014  -0.00002  -0.00007  -0.00009   2.16195
   A18        2.03256   0.00001   0.00001  -0.00006  -0.00005   2.03251
   A19        2.09301  -0.00000  -0.00001  -0.00004  -0.00005   2.09296
   A20        2.11966   0.00005  -0.00001   0.00003   0.00002   2.11968
   A21        2.12566  -0.00004   0.00004   0.00005   0.00010   2.12576
    D4        3.08313   0.00001   0.00027   0.00218   0.00244   3.08557
    D5       -1.77712   0.00020   0.00017   0.00268   0.00284  -1.77427
    D6        1.90534  -0.00031   0.00017  -0.00255  -0.00239   1.90295
    D7        0.01839   0.00002  -0.00029  -0.00186  -0.00215   0.01624
    D8       -3.11911  -0.00000   0.00012   0.00045   0.00056  -3.11854
    D9        0.01943  -0.00003  -0.00013  -0.00041  -0.00054   0.01890
   D10       -3.12085  -0.00005   0.00008  -0.00070  -0.00062  -3.12147
   D11       -3.10105  -0.00011   0.00003  -0.00113  -0.00109  -3.10214
   D12        2.13391   0.00001   0.00006  -0.00019  -0.00013   2.13378
   D13       -2.11320  -0.00006   0.00013   0.00028   0.00042  -2.11279
   D14       -3.15034   0.00006  -0.00016   0.00009  -0.00007  -3.15041
   D15       -3.12786  -0.00005   0.00015  -0.00088  -0.00073  -3.12858
   D16        3.15103  -0.00006   0.00013  -0.00093  -0.00081   3.15022
   D17       -1.73736   0.00025   0.00048   0.00446   0.00494  -1.73242
   D18        3.08690   0.00009  -0.00032  -0.00245  -0.00277   3.08414
   D19        3.12577   0.00007  -0.00012   0.00129   0.00117   3.12694
   D20        3.10018  -0.00007  -0.00033  -0.00304  -0.00337   3.09681
   D21       -3.12079   0.00000   0.00019   0.00083   0.00102  -3.11977
         Item               Value     Threshold  Converged?
 Maximum Force            0.000426     0.000450     YES
 RMS     Force            0.000117     0.000300     YES
 Maximum Displacement     0.004942     0.001800     NO 
 RMS     Displacement     0.001224     0.001200     NO 
 Predicted change in Energy=-2.456420D-06
 GradGradGradGradGradGradGradGradGradGradGradGradGradGradGradGradGradGrad

 ---------------------------------------------------------------------------------------------------
                            Z-MATRIX (ANGSTROMS AND DEGREES)
   CD    Cent   Atom    N1       Length/X        N2       Alpha/Y        N3        Beta/Z          J
 ---------------------------------------------------------------------------------------------------
      1      1  C 
      2      2  C        1   1.388916(     1)
      3      3  S        1   1.821473(     2)      2  117.538(    21)
      4      4  C        1   1.390782(     3)      2  120.974(    22)      3  176.790(    40)      0
      5      5  C        3   1.869544(     4)      1   96.588(    23)      2 -101.658(    41)      0
      6      6  O        3   1.480200(     5)      1  106.099(    24)      5  109.031(    42)      0
      7      7  H        2   1.083239(     6)      1  118.745(    25)      3    0.931(    43)      0
      8      8  C        2   1.390946(     7)      1  119.300(    26)      7 -178.679(    44)      0
      9      9  C        4   1.390067(     8)      1  119.423(    27)      2    1.083(    45)      0
     10     10  H        4   1.084382(     9)      1  120.172(    28)      9 -178.847(    46)      0
     11     11  C        5   1.489768(    10)      3  109.520(    29)      1 -177.740(    47)      0
     12     12  H        5   1.092817(    11)      3  106.272(    30)     11  122.256(    48)      0
     13     13  H        5   1.090910(    12)      3  104.980(    31)     11 -121.054(    49)      0
     14     14  H        8   1.083062(    13)      2  119.583(    32)      1 -180.505(    50)      0
     15     15  C        8   1.391466(    14)      2  120.197(    33)     14 -179.255(    51)      0
     16     16  H        9   1.084181(    15)      4  119.772(    34)      1  180.494(    52)      0
     17     17  C       11   1.328063(    16)      5  123.871(    35)      3  -99.260(    53)      0
     18     18  H       11   1.085839(    17)      5  116.454(    36)     17  176.708(    54)      0
     19     19  H       15   1.083879(    18)      8  119.918(    37)      2  179.161(    55)      0
     20     20  H       17   1.081903(    19)     11  121.449(    38)      5  177.434(    56)      0
     21     21  H       17   1.083432(    20)     11  121.797(    39)     20 -178.749(    57)      0
 ---------------------------------------------------------------------------------------------------
                         Z-Matrix orientation:                         
 ---------------------------------------------------------------------
 Center     Atomic      Atomic             Coordinates (Angstroms)
 Number     Number       Type             X           Y           Z
 ---------------------------------------------------------------------
      1          6           0        0.000000    0.000000    0.000000
      2          6           0        0.000000    0.000000    1.388916
      3         16           0        1.615112    0.000000   -0.842126
      4          6           0       -1.190589   -0.066772   -0.715762
      5          6           0        1.631801    1.818884   -1.274073
      6          8           0        2.631133   -0.182498    0.218717
      7          1           0        0.949625    0.015427    1.909859
      8          6           0       -1.212060   -0.047653    2.069630
      9          6           0       -2.398481   -0.111597   -0.029269
     10          1           0       -1.173757   -0.102461   -1.799426
     11          6           0        2.862088    2.134333   -2.052722
     12          1           0        0.713172    2.008917   -1.834658
     13          1           0        1.599946    2.336884   -0.314518
     14          1           0       -1.217089   -0.056159    3.152646
     15          6           0       -2.409821   -0.099793    1.363352
     16          1           0       -3.329594   -0.171824   -0.581403
     17          6           0        3.953729    2.675825   -1.524652
     18          1           0        2.858717    1.847135   -3.099886
     19          1           0       -3.351097   -0.150550    1.898345
     20          1           0        4.840860    2.851050   -2.118629
     21          1           0        4.007701    2.945062   -0.476595
 ---------------------------------------------------------------------
                    Distance matrix (angstroms):
                    1          2          3          4          5
     1  C    0.000000
     2  C    1.388916   0.000000
     3  S    1.821473   2.754294   0.000000
     4  C    1.390782   2.419014   2.809339   0.000000
     5  C    2.755790   3.614225   1.869544   3.439956   0.000000
     6  O    2.646508   2.885399   1.480200   3.936013   2.689353
     7  H    2.132976   1.083239   2.831349   3.388386   3.722264
     8  C    2.398901   1.390946   4.058755   2.785540   4.769891
     9  C    2.401255   2.788623   4.096599   1.390067   4.638909
    10  H    2.150846   3.399077   2.950375   1.084382   3.440744
    11  C    4.118324   4.959012   2.752429   4.801720   1.489768
    12  H    2.812531   3.864685   2.415442   3.030629   1.092817
    13  H    2.849522   3.304926   2.395752   3.704813   1.090910
    14  H    3.379887   2.143643   4.897216   3.868513   5.588184
    15  C    2.770546   2.412022   4.590663   2.410463   5.193462
    16  H    3.384338   3.872709   4.954555   2.145794   5.390561
    17  C    5.011644   5.592932   3.618703   5.885588   2.487667
    18  H    4.603636   5.633251   3.171111   5.073851   2.199935
    19  H    3.854378   3.392939   5.674159   3.392399   6.226731
    20  H    6.004249   6.623087   4.490367   6.845444   3.475155
    21  H    4.996218   5.311797   3.812018   6.012533   2.747571
                    6          7          8          9         10
     6  O    0.000000
     7  H    2.393033   0.000000
     8  C    4.267809   2.168499   0.000000
     9  C    5.036223   3.871197   2.411858   0.000000
    10  H    4.307725   4.275681   3.869633   2.152553   0.000000
    11  C    3.252766   4.883578   6.193023   6.067302   4.621196
    12  H    3.563316   4.248685   4.814505   4.175930   2.831900
    13  H    2.773981   3.280234   4.390621   4.697217   3.981053
    14  H    4.840734   2.498858   1.083062   3.394606   4.952478
    15  C    5.169937   3.405558   1.391466   1.392718   3.395736
    16  H    6.014197   4.955115   3.395194   1.084181   2.477099
    17  C    3.599807   5.281877   6.857228   7.096229   5.838278
    18  H    3.896709   5.665451   6.847287   6.395581   4.664008
    19  H    6.213633   4.303938   2.148349   2.150510   4.291460
    20  H    4.421369   6.277833   7.910868   8.096343   6.708259
    21  H    3.487124   4.861044   6.533415   7.112133   6.155062
                   11         12         13         14         15
    11  C    0.000000
    12  H    2.163590   0.000000
    13  H    2.157634   1.790184   0.000000
    14  H    6.966620   5.732682   5.067895   0.000000
    15  C    6.667377   4.942369   4.983059   2.150834   0.000000
    16  H    6.769052   4.761327   5.537617   4.291757   2.152497
    17  C    1.328063   3.322963   2.668258   7.488538   7.519268
    18  H    1.085839   2.496065   3.095583   7.702524   7.174157
    19  H    7.709429   5.925950   5.966315   2.477129   1.083879
    20  H    2.105604   4.222279   3.744691   8.540313   8.567617
    21  H    2.110423   3.684376   2.488661   7.033999   7.337652
                   16         17         18         19         20
    16  H    0.000000
    17  C    7.876904   0.000000
    18  H    6.979552   2.089771   0.000000
    19  H    2.479933   8.547853   8.217959   0.000000
    20  H    8.846307   1.081903   2.428910   9.604887   0.000000
    21  H    7.972569   1.083432   3.067126   8.329169   1.843711
                   21
    21  H    0.000000
 Symmetry turned off by external request.
 Stoichiometry    C9H10OS
 Framework group  C1[X(C9H10OS)]
 Deg. of freedom    57
 Full point group                 C1      NOp   1
 Rotational constants (GHZ):           2.3849691           0.5228003           0.4875664
 Standard basis: def2TZVP (5D, 7F)
 The following finite field(s) will be applied:
 An electric field of             -0.0073  0.0015 -0.0004
   407 basis functions,   659 primitive gaussians,   462 cartesian basis functions
    44 alpha electrons       44 beta electrons
       nuclear repulsion energy       664.9306595618 Hartrees.
 NAtoms=   21 NActive=   21 NUniq=   21 SFac= 1.00D+00 NAtFMM=   60 NAOKFM=F Big=F
 Integral buffers will be    131072 words long.
 Raffenetti 2 integral format.
 Two-electron integral symmetry is turned off.
 One-electron integrals computed using PRISM.
   1 Symmetry operations used in ECPInt.
 ECPInt:  NShTT=   13366 NPrTT=   41614 LenC2=   12465 LenP2D=   29246.
[...]
 269,-0.00003718,-0.00073135,0.00003021,-0.00015155,0.00160371,0.001242
 92,0.00204301,0.02516758,-0.00076578,-0.00043192,-0.01307780,-0.003245
 54,-0.00034068,0.00007377,0.00105803,-0.00022901,-0.00003204,0.0047345
 0,-0.00980731,-0.32857059,-0.00049266,0.00033720,-0.00013012,-0.000286
 35,0.00027254,-0.00021373,0.00053112,0.00006511,-0.00063364,-0.0001675
 2,0.00003196,0.00073088,-0.00211704,-0.00015973,-0.01176192,-0.0030009
 8,0.01062768,0.35209504,0.00117971,-0.00075914,0.00077704,-0.00001713,
 0.00032220,0.00009590,-0.00509029,-0.02423917,0.00636308,0.00018821,0.
 00030220,-0.00051203,-0.16799201,-0.00582776,0.05156829,-0.00040293,0.
 00225346,-0.00156689,-0.00013034,-0.00005233,0.00012626,-0.00004124,0.
 00006436,0.00016206,0.00012033,-0.00006435,-0.00000022,-0.00003055,0.0
 0008918,0.00006668,0.65989278,0.00108371,-0.00681198,0.00151366,-0.001
 22634,0.00018084,0.00037609,-0.02390981,-0.01205048,0.01438723,-0.0004
 9644,0.00034672,0.00053050,-0.02753274,-0.06743363,0.00965063,-0.00016
 912,0.00166711,-0.00097816,-0.00005855,-0.00045427,0.00002368,0.000035
 70,0.00070299,0.00011685,0.00001250,0.00051843,-0.00010966,-0.00004014
 ,-0.00032503,-0.00019909,0.21285941,0.25322924,0.00061864,-0.00059877,
 0.00091388,-0.00019978,0.00004363,-0.00015027,0.00199123,0.01205228,-0
 .00553330,-0.00060126,-0.00011723,0.00042660,0.05944880,-0.00003486,-0
 .13149770,0.00137897,-0.00084080,0.00211825,0.00006597,-0.00017077,-0.
 00006506,-0.00047412,0.00015159,0.00014269,0.00048303,-0.00012177,-0.0
 0047921,0.00009562,0.00021452,0.00007082,0.08386797,0.13897484,0.64000
 769,-0.00020755,-0.00021592,0.00054675,0.00016171,-0.00016279,-0.00040
 924,0.00018793,0.00144959,0.00023792,-0.00032652,-0.00036171,0.0001561
 3,-0.22425483,0.03989928,-0.11420440,0.00033455,-0.00065434,0.00019608
 ,-0.00000556,0.00001035,0.00002012,-0.00018884,-0.00001302,0.00007575,
 0.00004983,-0.00013731,0.00004710,-0.00002191,-0.00004931,0.00025139,-
 0.02224511,0.00367931,-0.01492144,0.24664614,-0.00001104,0.00056715,-0
 .00081960,-0.00039009,0.00011648,0.00053924,0.01828166,-0.00226129,0.0
 1301056,-0.00003835,0.00035820,0.00048114,0.04630680,-0.04862686,0.022
 62924,0.00201804,-0.00885157,0.00298575,0.00017590,-0.00002078,-0.0001
 3121,0.00055369,-0.00012213,-0.00003155,-0.00056937,0.00003868,0.00017
 861,-0.00022736,-0.00043507,-0.00011486,-0.00995530,0.00180604,-0.0047
 5355,-0.04216793,0.05255658,-0.00000966,-0.00027409,0.00026979,0.00020
 128,-0.00001001,-0.00042962,-0.00400378,-0.00042787,-0.00479820,0.0000
 9011,-0.00016579,0.00001871,-0.11394303,0.02144834,-0.11926281,-0.0006
 7651,0.00309798,0.00036882,-0.00009829,-0.00005616,0.00012384,-0.00029
 496,0.00005458,0.00004451,0.00038748,-0.00015829,-0.00014532,0.0000028
 8,0.00015419,0.00022104,0.01621192,-0.00401547,0.01070237,0.12200433,-
 0.02828248,0.12472079,-0.00004940,-0.00027871,-0.00078133,0.00016852,0
 .00015687,0.00008138,0.00093200,-0.00000056,-0.00037294,-0.00044192,-0
 .00003506,-0.00015533,-0.04949556,0.00326226,0.00461114,-0.00054543,0.
 00012978,0.00038806,0.00010710,-0.00006990,-0.00002304,-0.00023890,0.0
 0005185,0.00008529,0.00004487,-0.00002106,-0.00010191,0.00007740,0.000
 01642,0.00011292,0.00016688,0.01235440,0.02486563,0.00145627,-0.013507
 88,-0.02103735,0.04994919,0.00219463,0.00212556,-0.00051519,-0.0001989
 1,0.00020238,0.00013291,-0.00448426,-0.03091975,-0.02081627,-0.0007287
 3,0.00030236,0.00005363,0.00676591,-0.09489866,-0.11680865,0.00065741,
 0.00811419,0.00276336,0.00004267,-0.00009734,0.00011482,-0.00039607,-0
 .00011414,0.00019398,0.00039893,-0.00024928,-0.00047102,0.00005395,0.0
 0003564,-0.00002952,-0.00203112,0.00406952,0.00790722,-0.00056535,0.00
 458709,0.00718643,-0.00075117,0.10595489,-0.00075845,0.00027224,0.0011
 4931,-0.00031316,-0.00018828,0.00021732,0.00069770,0.00681611,0.003697
 82,-0.00015290,-0.00006697,-0.00003789,0.00484392,-0.10982616,-0.25587
 973,0.00103632,-0.00186520,0.00073781,0.00002363,0.00004904,-0.0000145
 4,0.00017139,-0.00001732,-0.00000023,-0.00002536,-0.00002743,0.0001142
 9,0.00001076,0.00007388,0.00002063,0.00135325,-0.00685639,-0.01605150,
 0.00139855,-0.00724615,-0.01158948,-0.00956691,0.11811325,0.27535548,-
 0.00435469,-0.00052198,0.00315638,0.00369805,0.00004305,0.02881243,0.0
 0044484,-0.00001917,0.00144616,-0.00129143,-0.00003055,-0.00002570,-0.
 00005883,0.00010396,0.00006634,-0.00006874,0.00001212,-0.00060713,0.00
 113526,0.00016709,-0.00056772,-0.05939804,-0.00089343,0.00085353,-0.00
 434145,-0.00052413,-0.00227365,0.00012647,0.00005624,0.00001362,0.0000
 1288,-0.00010413,-0.00006465,0.00000007,-0.00000602,0.00000422,0.00000
 397,-0.00003625,-0.00000263,0.05858026,-0.00044568,0.00747195,-0.00015
 023,-0.00011389,0.00297920,0.00133059,-0.00011180,-0.00004111,-0.00014
 909,0.00025888,-0.00078602,0.00010303,0.00002791,0.00002370,-0.0000257
 8,0.00003974,0.00015976,-0.00001699,0.00001917,-0.00390806,-0.00010264
 ,-0.00085189,-0.03573922,0.00235399,-0.00057971,0.00781664,-0.00016215
 ,0.00007499,-0.00133421,0.00003757,0.00000447,-0.00001575,0.00001723,0
 .00002076,-0.00000925,-0.00000026,-0.00002753,-0.00000291,0.00001822,0
 .00125852,0.02527804,0.00314972,0.00027126,0.00018005,-0.00120313,0.00
 002281,-0.01190739,-0.00066361,-0.00002813,-0.00065064,0.00016518,0.00
 002516,0.00072955,0.00005475,-0.00009984,-0.00005140,0.00016062,0.0000
 0829,0.00034893,-0.00004340,-0.00006924,0.00080637,0.00081576,0.001772
 96,-0.33470094,-0.00317815,-0.00010872,0.00071482,-0.00000379,-0.00001
 408,-0.00006815,-0.00002499,0.00010094,0.00006383,-0.00000068,0.000007
 02,-0.00000238,0.00000084,0.00001725,0.00000300,-0.00162822,-0.0020567
 0,0.35593088,-0.01611269,-0.00028003,-0.02855895,-0.05902687,-0.002493
 61,0.02355601,0.00021568,-0.00017829,-0.00005709,0.02920961,0.00172362
 ,0.02921162,-0.00067904,0.00100293,-0.00007186,-0.00031161,-0.00048321
 ,0.00014987,-0.00228385,-0.00042835,0.00331732,-0.27420010,-0.00922303
 ,-0.12027666,-0.12648013,-0.00421185,0.03333155,-0.00447281,-0.0005544
 2,0.00320298,0.00009622,-0.00038791,0.00010204,0.00009704,-0.00015499,
 0.00014915,0.00007657,0.00013386,-0.00013722,0.00451645,0.00021089,0.0
 0255684,0.70929916,-0.00100335,-0.00478206,-0.00146343,-0.00263265,0.0
 0471622,0.00083593,0.00010518,-0.00075057,-0.00036334,0.00229384,0.002
 91594,0.00101892,-0.00012155,0.00008134,0.00008755,0.00008182,-0.00000
 211,0.00024563,-0.00018048,0.00716220,0.00041804,-0.00993372,-0.054887
 73,-0.00501324,-0.00461312,-0.05083375,-0.00009532,-0.00071328,0.00788
 704,-0.00020868,-0.00003629,-0.00008042,0.00002266,0.00002236,-0.00003
 342,0.00004346,-0.00000346,-0.00000549,0.00002067,0.00035977,0.0012969
 4,0.00019961,0.02797354,0.11901048,-0.03150361,-0.00257486,-0.05139735
 ,-0.02344903,-0.00078885,0.06462157,0.00057483,0.00100167,-0.00356427,
 0.07845198,0.00279655,-0.02785164,0.00039203,0.00004112,0.00021771,0.0
 0012068,-0.00064044,0.00101242,0.00321175,0.00026015,-0.00110284,-0.05
 573068,-0.00124523,-0.18189784,-0.03070314,-0.00444433,-0.32514957,0.0
 0202535,0.00001572,0.00099591,0.00000542,0.00024726,0.00051108,0.00005
 787,-0.00047521,0.00021036,0.00014582,0.00045592,-0.00007698,-0.028400
 69,-0.00117638,-0.01159354,-0.03308296,0.00021415,0.67133534,-0.003826
 91,-0.00055251,0.00420659,0.00012382,0.00008867,0.00093010,0.00085501,
 -0.00010588,-0.00110671,-0.02002053,-0.00134115,-0.01661914,-0.0000900
 2,0.00005815,0.00010349,-0.00093593,0.00013958,-0.00018847,-0.00005710
 ,0.00007945,-0.00004661,0.00188067,-0.00039143,0.00018705,-0.25735107,
 -0.01392521,-0.11785964,0.00109808,0.00025611,0.00024564,0.00007427,-0
 .00013972,-0.00007642,0.00000230,-0.00003831,0.00001749,-0.00000278,-0
 .00000449,0.00000187,-0.00003602,-0.00001907,0.00019414,0.00296795,0.0
 0025545,0.00195083,0.27449062,-0.00026056,0.00787934,0.00033727,0.0001
 8016,-0.00105923,-0.00016672,0.00007056,0.00044229,-0.00018996,-0.0008
 9840,0.00037685,-0.00068399,-0.00004864,0.00005706,0.00000966,-0.00013
 410,-0.00025289,0.00013017,0.00002795,-0.00113517,-0.00001300,-0.00031
 479,0.00790467,-0.00007280,-0.01432812,-0.03143447,-0.00829561,0.00018
 717,-0.00360441,0.00019820,-0.00000512,-0.00004003,-0.00001793,0.00002
 295,0.00003002,0.00001842,0.00000828,-0.00000220,-0.00002779,-0.000053
 84,0.00028207,0.00000469,-0.00007657,-0.00047984,0.00018589,0.01539986
 ,0.02422591,0.00312494,0.00001917,-0.00041855,0.00087243,0.00000271,-0
 .00078346,0.00017988,-0.00000820,0.00045590,0.01421541,0.00089132,0.01
 113551,-0.00002757,0.00001881,-0.00004001,0.00035163,-0.00004271,0.000
 04210,-0.00002601,0.00000632,0.00007234,0.00160028,-0.00004432,-0.0057
 5091,-0.11789297,-0.00778715,-0.12925178,-0.00064231,0.00008239,0.0009
 3155,-0.00000462,-0.00000983,-0.00001501,-0.00000347,0.00003622,-0.000
 00930,-0.00000075,-0.00000055,-0.00000144,-0.00142271,-0.00003455,-0.0
 0062961,-0.02950552,-0.00182164,-0.01074937,0.12858562,0.00859724,0.13
 389941,-0.00016090,-0.00004019,-0.00038433,0.00022619,-0.00023031,-0.0
 0029021,-0.00258727,0.00641400,-0.00216036,-0.00010990,-0.00018899,0.0
 0020697,-0.03433206,-0.02069817,-0.00399572,0.00201090,-0.00023767,0.0
 0085749,0.00001898,0.00000748,-0.00001454,-0.00020084,0.00000410,-0.00
 005240,0.00011757,0.00001329,-0.00008318,0.00002811,0.00007109,0.00004
 170,-0.39710823,-0.15778925,-0.14838122,-0.00272331,-0.00066828,0.0014
 5330,0.00155848,0.00070271,-0.00199106,-0.00000237,0.00002257,0.000003
 57,0.00004222,0.00001687,0.00015154,-0.00001880,-0.00000182,-0.0000048
 9,0.73379744,0.00021496,0.00009430,0.00021124,-0.00013137,-0.00003360,
 0.00006315,0.00005344,0.00137095,-0.00042302,-0.00001255,-0.00004228,0
 .00005614,-0.01094942,0.00021703,-0.00181024,-0.00038028,-0.00033056,-
 0.00020616,0.00000652,-0.00001146,-0.00003115,-0.00002064,0.00003424,-
 0.00000970,0.00003991,-0.00002294,-0.00002577,0.00001919,0.00002562,-0
 .00001910,-0.15520917,-0.12505205,-0.08248370,0.00055504,0.00061075,0.
 00063372,0.00025488,-0.00006220,0.00046620,-0.00001200,0.00000236,0.00
 001490,-0.00002765,0.00001112,0.00005137,-0.00001995,-0.00000654,-0.00
 000695,0.22385547,0.22169131,-0.00086865,0.00144186,-0.00021467,0.0003
 6413,-0.00011757,-0.00013168,0.00417033,0.00221074,0.00010118,0.000184
 29,-0.00008565,-0.00013423,0.01311932,0.00412565,0.01349678,-0.0010677
 0,-0.00074445,-0.00106080,0.00004494,0.00013143,0.00002234,-0.00001644
 ,-0.00018587,0.00000403,-0.00016555,-0.00005612,0.00007690,-0.00002439
 ,0.00000334,-0.00000714,-0.14589099,-0.08331063,-0.18977775,0.00414247
 ,0.00150997,-0.00152796,0.00085948,0.00118698,0.00139980,0.00003947,0.
 00001300,-0.00004883,0.00016294,0.00000666,-0.00015454,0.00005293,0.00
 000736,0.00001176,0.03150738,0.12678119,0.65734140,-0.00009427,-0.0001
 9948,-0.00022464,0.00000202,-0.00002424,-0.00001593,-0.00017033,0.0009
 0408,0.00017901,0.00006919,0.00000130,0.00011345,-0.00036206,0.0058629
 9,0.02630997,0.00030775,-0.00006173,0.00005949,-0.00000937,0.00002742,
 -0.00002997,0.00005805,-0.00000721,-0.00007087,-0.00002617,0.00002356,
 0.00002533,-0.00001312,-0.00003220,-0.00001103,-0.05341680,-0.00586455
 ,0.00293951,0.00119113,0.00052582,-0.00079813,-0.00374689,-0.00208624,
 0.00280732,0.00000093,-0.00000208,0.00000559,-0.00006084,0.00000751,-0
 .00001990,-0.00002050,0.00000012,-0.00000179,0.00205714,-0.00804869,-0
 .02902102,0.05628626,0.00000088,0.00003143,-0.00026957,0.00007487,-0.0
 0003678,0.00004126,-0.00003029,0.00079389,0.00010697,0.00003917,0.0000
 1923,-0.00007226,-0.00040239,0.00354761,0.00719049,0.00031229,-0.00018
 631,0.00004100,-0.00001505,0.00001816,0.00000693,0.00007636,-0.0000077
 6,-0.00005032,-0.00000056,-0.00000694,0.00005595,-0.00001700,0.0000029
 5,0.00001738,-0.00632616,-0.05654658,-0.06383893,-0.00024416,-0.000027
 57,-0.00028082,-0.00121309,0.00094293,0.00015873,0.00001491,0.00000073
 ,-0.00001088,-0.00004257,-0.00000116,-0.00004821,0.00001593,0.00000689
 ,-0.00000078,-0.00110811,0.00269070,-0.01407923,0.01147039,0.04610915,
 0.00007332,0.00051259,0.00026570,-0.00007757,0.00000012,0.00002559,0.0
 0048686,-0.00107885,-0.00050700,-0.00001269,-0.00000206,-0.00007572,-0
 .00069478,-0.00388569,-0.01233850,-0.00023784,0.00023558,-0.00004973,-
 0.00000094,-0.00000331,0.00001153,-0.00001547,-0.00004278,0.00005532,0
 .00000564,-0.00003264,-0.00000449,0.00001501,0.00001819,-0.00000127,-0
 .00012548,-0.06318962,-0.31110624,0.00051603,0.00017873,0.00080551,0.0
 0205489,0.00075322,0.00008413,-0.00000613,0.00000116,-0.00000050,0.000
 03462,0.00000074,0.00000243,0.00001434,-0.00000265,0.00000160,0.000226
 00,-0.00400293,-0.01154952,-0.00066601,0.07158385,0.33224848,0.0002368
 0,0.00005151,-0.00104843,-0.00344049,-0.00051713,-0.00431448,0.0000369
 2,0.00010609,-0.00016527,0.00185641,-0.00043124,-0.00001480,-0.0000010
 6,0.00001604,0.00001391,-0.00015604,-0.00000205,0.00025260,-0.00068485
 ,-0.00004201,0.00092454,-0.01952101,-0.00109321,0.01681626,0.00249186,
 0.00019684,-0.00186980,-0.00003478,-0.00001620,-0.00016536,0.00003102,
 -0.00004436,-0.00003785,-0.00000229,-0.00000301,0.00000137,0.00000417,
 0.00001791,-0.00000160,0.00103793,0.00021578,-0.00036616,-0.26288434,-
 0.01187807,0.11576871,0.00087197,0.00022908,0.00060326,-0.00001105,-0.
 00001670,0.00002900,-0.00001109,0.00000643,0.00000648,0.28018026,0.000
 31941,-0.00138798,-0.00016619,-0.00068137,0.00797635,0.00005603,-0.000
 23568,-0.00069519,-0.00008516,-0.00039868,0.00804589,-0.00021734,-0.00
 016136,-0.00000330,0.00011695,-0.00002282,-0.00007725,0.00009200,0.000
 05936,0.00014127,0.00001571,-0.00043591,0.00041436,0.00090631,0.000481
 19,-0.00060944,-0.00042150,0.00004085,0.00022656,-0.00008372,0.0000101
 0,-0.00010063,-0.00000436,0.00001273,-0.00002028,0.00001545,-0.0000028
 0,0.00001109,0.00000830,0.00017551,-0.00347908,-0.00004146,-0.01255360
 ,-0.03122257,0.00614439,0.00021358,-0.00320018,0.00010043,-0.00000101,
 -0.00000675,0.00002328,-0.00000247,0.00000313,0.00000544,0.01318763,0.
 02397368,-0.00096384,-0.00004555,-0.00090645,-0.00318729,-0.00002814,-
 0.00069805,-0.00022605,-0.00001595,-0.00002132,-0.00119792,-0.00021466
 ,-0.00571623,-0.00003187,0.00002271,-0.00002642,0.00014571,0.00000107,
 0.00018560,-0.00059872,-0.00003030,0.00038415,-0.01452140,-0.00077328,
 0.01165911,0.02962254,0.00167005,-0.01046219,0.00139666,0.00004640,-0.
 00063831,-0.00000713,0.00000908,0.00003793,0.00001329,-0.00003270,0.00
 002276,0.00001171,0.00000986,-0.00000281,0.00061313,0.00000392,0.00086
 960,0.11593801,0.00585125,-0.12538984,-0.00059016,-0.00001567,0.001100
 59,0.00001290,0.00000695,-0.00001709,0.00000052,-0.00000355,-0.0000013
 1,-0.12643192,-0.00645815,0.12961887,0.00009878,-0.00040375,0.00005324
 ,-0.00006602,-0.00001220,-0.00000891,-0.00121977,0.00048095,-0.0000814
 8,-0.00004403,0.00000173,0.00007381,-0.00053233,-0.00462808,-0.0016184
 6,0.00030912,0.00005318,0.00020315,0.00000090,-0.00002725,-0.00000716,
 -0.00001538,0.00004260,-0.00000512,0.00003253,0.00003036,-0.00002788,0
 .00000524,-0.00000513,-0.00001233,-0.01681285,-0.00467673,0.01556259,-
 0.00010196,-0.00012874,0.00015758,0.00021398,0.00007695,-0.00019185,-0
 .00000954,0.00000085,0.00001147,-0.00003303,-0.00000139,0.00004845,-0.
 00001735,-0.00000410,-0.00000284,-0.24580690,-0.04347390,0.12860214,0.
 00022525,0.00253298,-0.00057882,-0.00000816,-0.00000612,0.00000425,0.2
 5902924,-0.00025003,0.00063229,0.00005041,0.00014906,-0.00002013,-0.00
 011145,0.00194933,0.00059421,-0.00047289,0.00011096,-0.00007700,-0.000
 08828,-0.00463221,0.00983169,-0.00465100,-0.00016353,-0.00029948,0.000
 03287,-0.00000718,0.00005225,0.00000936,-0.00004187,-0.00007809,0.0000
 1468,0.00000086,-0.00006562,0.00002984,0.00000811,0.00006080,0.0000455
 9,-0.01136767,0.00274542,0.00729807,-0.00196680,-0.00089325,0.00096368
 ,-0.00006611,-0.00000471,0.00043422,0.00001096,0.00000273,-0.00001368,
 0.00008064,0.00000750,-0.00003728,0.00002315,0.00000771,0.00000228,-0.
 04190010,-0.04780602,0.02076124,0.00271469,-0.00641151,0.00174038,0.00
 000808,0.00001505,-0.00000032,0.05049257,0.03726173,0.00012263,-0.0003
 5962,0.00005196,-0.00007441,0.00000500,0.00001185,-0.00103677,0.000314
 56,-0.00010645,-0.00004330,0.00000464,0.00004164,-0.00111232,-0.003644
 92,0.00019918,0.00033746,0.00024202,0.00023866,-0.00000974,-0.00004061
 ,0.00000517,0.00000034,0.00004567,0.00000496,0.00002535,0.00002590,-0.
 00001741,0.00000209,-0.00001086,-0.00000787,-0.01356658,-0.00396598,0.
 01035240,-0.00006303,0.00028087,0.00011781,-0.00030907,0.00003806,0.00
 018686,-0.00000765,-0.00000281,0.00000753,-0.00003034,-0.00000066,0.00
 003144,-0.00000796,-0.00000255,-0.00000074,0.13288923,0.02326117,-0.14
 490638,-0.00044315,0.00175983,0.00088768,-0.00000137,-0.00000643,0.000
 00146,-0.13934503,-0.02234180,0.14338360,-0.00005345,0.00017028,0.0000
 7773,0.00002010,0.00001294,-0.00001537,0.00036539,-0.00028421,-0.00008
 808,0.00002626,-0.00001181,-0.00005087,0.00126425,0.00251772,-0.002442
 04,-0.00015506,0.00015206,-0.00002462,-0.00000408,-0.00001112,0.000019
 51,-0.00001223,-0.00001281,0.00002272,-0.00000835,-0.00001141,0.000013
 46,-0.00000012,0.00000649,0.00000599,0.00152518,-0.00758523,-0.0266632
 5,-0.00004909,0.00000478,0.00018060,-0.00023853,0.00023765,0.00079641,
 0.00000400,-0.00000290,-0.00000636,0.00002439,0.00000102,-0.00001526,0
 .00001233,-0.00000008,0.00000201,-0.05679541,-0.00669708,-0.00622409,-
 0.00226626,-0.00514483,-0.00101748,0.00000782,0.00000146,-0.00000243,0
 .00475227,0.00484708,0.02267360,0.05158061,0.00021419,-0.00047783,-0.0
 0003503,-0.00004110,0.00001966,0.00002726,-0.00208249,0.00002847,-0.00
 057896,-0.00003940,0.00003375,-0.00002043,0.00239168,-0.00688635,0.002
 45095,0.00099166,0.00048092,0.00053303,-0.00004290,-0.00004366,0.00003
 015,0.00001879,0.00004395,0.00000041,0.00002556,0.00004167,-0.00000091
 ,-0.00001196,-0.00002757,-0.00000961,-0.00003179,0.00364453,-0.0136993
 6,0.00086626,0.00063046,0.00005498,-0.00025741,0.00001100,-0.00030919,
 -0.00000063,0.00000147,-0.00000217,-0.00002940,-0.00000966,0.00001658,
 0.00000780,0.00000213,-0.00000023,-0.00824367,-0.05337397,-0.05962316,
 -0.00520900,0.00905780,-0.00278947,0.00000860,-0.00000474,-0.00000303,
 -0.00034476,0.00444442,0.00439852,0.01180998,0.04238355,-0.00000355,0.
 00000692,0.00010199,0.00000110,-0.00000781,-0.00000431,-0.00003381,0.0
 0007574,-0.00021385,0.00003623,-0.00000789,-0.00003146,0.00083055,0.00
 216217,0.00085898,0.00019813,0.00023239,0.00005257,-0.00000211,0.00000
 875,0.00000934,-0.00000192,0.00000071,0.00000872,-0.00000381,0.0000004
 2,0.00001574,0.00000195,0.00000205,0.00000294,0.00110106,-0.00329593,-
 0.01067150,-0.00006155,0.00004997,0.00013875,-0.00086853,-0.00028569,0
 .00068814,0.00000159,-0.00000113,-0.00000118,0.00000765,0.00000105,-0.
 00001046,0.00000501,-0.00000025,-0.00000059,-0.00999216,-0.06252733,-0
 .32292357,-0.00113776,-0.00230785,0.00124632,0.00000090,0.00000001,-0.
 00000004,-0.00283680,-0.00366595,-0.01048335,0.01275784,0.06955966,0.3
 4121682\\-0.00136083,-0.00241729,-0.00000393,0.00137399,0.00080302,0.0
 0000181,0.00000919,0.00159126,0.00000500,-0.00000944,-0.00001279,0.000
 00365,-0.00000354,-0.00000384,-0.00001703,-0.00001432,0.00001321,-0.00
 000212,-0.00000053,0.00000542,0.00000038,-0.00000896,-0.00000684,-0.00
 000056,0.00000834,-0.00000104,-0.00001028,-0.00000150,0.00000318,-0.00
 000067,-0.00001476,0.00004786,-0.00000130,0.00000005,-0.00000613,0.000
 00421,-0.00000278,0.00000512,-0.00000322,-0.00000019,0.00000375,0.0000
 0076,0.00000463,-0.00000042,0.00001229,0.00000164,0.00000500,0.0000002
 6,0.00002094,-0.00005011,0.00000954,0.00000426,-0.00000238,0.00000263,
 0.00000125,0.00000332,-0.00000031,0.00000039,0.00000576,0.00000202,-0.
 00000784,0.00001392,-0.00000312\\\@


 WAR ES EIN GOTT DER DIESE ZEICHEN SCHRIEB?
          - LUDWIG BOLTZMANN, QUOTING GOETHE, ABOUT MAXWELL'S EQUATIONS.
 Job cpu time:       0 days  3 hours 14 minutes 19.9 seconds.
 Elapsed time:       0 days  0 hours 16 minutes 12.2 seconds.
 File lengths (MBytes):  RWF=    290 Int=      0 D2E=      0 Chk=     32 Scr=      1
 Normal termination of Gaussian 16 at Fri Jun 10 13:20:42 2022.
