 Entering Gaussian System, Link 0=g16
 Input=ts_zmat_field_N25.gjf
 Output=ts_zmat_field_N25.out
 Initial command:
 /software/gaussian/g16-a03/l1.exe "/local_scratch/11174450/Gau-20640.inp" -scrdir="/local_scratch/11174450/"
 Entering Link 1 = /software/gaussian/g16-a03/l1.exe PID=     20641.
  
 Copyright (c) 1988,1990,1992,1993,1995,1998,2003,2009,2016,
            Gaussian, Inc.  All Rights Reserved.
  
 This is part of the Gaussian(R) 16 program.  It is based on
 the Gaussian(R) 09 system (copyright 2009, Gaussian, Inc.),
 the Gaussian(R) 03 system (copyright 2003, Gaussian, Inc.),
 the Gaussian(R) 98 system (copyright 1998, Gaussian, Inc.),
 the Gaussian(R) 94 system (copyright 1995, Gaussian, Inc.),
 the Gaussian 92(TM) system (copyright 1992, Gaussian, Inc.),
 the Gaussian 90(TM) system (copyright 1990, Gaussian, Inc.),
 the Gaussian 88(TM) system (copyright 1988, Gaussian, Inc.),
 the Gaussian 86(TM) system (copyright 1986, Carnegie Mellon
 University), and the Gaussian 82(TM) system (copyright 1983,
 Carnegie Mellon University). Gaussian is a federally registered
 trademark of Gaussian, Inc.
  
 This software contains proprietary and confidential information,
 including trade secrets, belonging to Gaussian, Inc.
  
 This software is provided under written license and may be
 used, copied, transmitted, or stored only in accord with that
 written license.
  
 The following legend is applicable only to US Government
 contracts under FAR:
  
                    RESTRICTED RIGHTS LEGEND
  
 Use, reproduction and disclosure by the US Government is
 subject to restrictions as set forth in subparagraphs (a)
 and (c) of the Commercial Computer Software - Restricted
 Rights clause in FAR 52.227-19.
  
 Gaussian, Inc.
 340 Quinnipiac St., Bldg. 40, Wallingford CT 06492
  
  
 ---------------------------------------------------------------
 Warning -- This program may not be used in any manner that
 competes with the business of Gaussian, Inc. or will provide
 assistance to any competitor of Gaussian, Inc.  The licensee
 of this program is prohibited from giving any competitor of
 Gaussian, Inc. access to this program.  By using this program,
 the user acknowledges that Gaussian, Inc. is engaged in the
 business of creating and licensing software in the field of
 computational chemistry and represents and warrants to the
 licensee that it is not a competitor of Gaussian, Inc. and that
 it will not use this program in any manner prohibited above.
 ---------------------------------------------------------------
  

 Cite this work as:
 Gaussian 16, Revision A.03,
 M. J. Frisch, G. W. Trucks, H. B. Schlegel, G. E. Scuseria, 
 M. A. Robb, J. R. Cheeseman, G. Scalmani, V. Barone, 
 G. A. Petersson, H. Nakatsuji, X. Li, M. Caricato, A. V. Marenich, 
 J. Bloino, B. G. Janesko, R. Gomperts, B. Mennucci, H. P. Hratchian, 
 J. V. Ortiz, A. F. Izmaylov, J. L. Sonnenberg, D. Williams-Young, 
 F. Ding, F. Lipparini, F. Egidi, J. Goings, B. Peng, A. Petrone, 
 T. Henderson, D. Ranasinghe, V. G. Zakrzewski, J. Gao, N. Rega, 
 G. Zheng, W. Liang, M. Hada, M. Ehara, K. Toyota, R. Fukuda, 
 J. Hasegawa, M. Ishida, T. Nakajima, Y. Honda, O. Kitao, H. Nakai, 
 T. Vreven, K. Throssell, J. A. Montgomery, Jr., J. E. Peralta, 
 F. Ogliaro, M. J. Bearpark, J. J. Heyd, E. N. Brothers, K. N. Kudin, 
 V. N. Staroverov, T. A. Keith, R. Kobayashi, J. Normand, 
 K. Raghavachari, A. P. Rendell, J. C. Burant, S. S. Iyengar, 
 J. Tomasi, M. Cossi, J. M. Millam, M. Klene, C. Adamo, R. Cammi, 
 J. W. Ochterski, R. L. Martin, K. Morokuma, O. Farkas, 
 J. B. Foresman, and D. J. Fox, Gaussian, Inc., Wallingford CT, 2016.
 
 ******************************************
 Gaussian 16:  ES64L-G16RevA.03 25-Dec-2016
                10-Jun-2022 
 ******************************************
 %nprocshared=12
 Will use up to   12 processors via shared memory.
 %chk=checkpoint.chk
 %mem=12GB
 ----------------------------------------------------------------------
 # Opt=(TS, CalcFC, noeigentest, Z-matrix, MaxStep=10) Field=read NoSym
 m B3LYP/Def2TZVP freq=noraman pop=none
 ----------------------------------------------------------------------
 1/5=1,8=10,10=4,11=1,18=40,26=3,38=1/1,3;
 2/12=2,15=1,17=6,18=5,29=3,40=1/2;
 3/5=44,7=101,11=2,14=-6,25=1,30=1,71=2,74=-5,140=1/1,2,3;
 4//1;
 5/5=2,38=5/2;
 8/6=4,10=90,11=11/1;
 11/6=1,8=1,9=11,15=111,16=1,31=1/1,2,10;
 10/6=1,13=1,31=1/2;
 7/10=1,18=20,25=1,30=1/1,2,3,16;
 1/5=1,8=10,10=4,11=1,18=40,26=3/3(2);
 2/15=1,29=3/2;
 99//99;
 2/15=1,29=3/2;
 3/5=44,7=101,11=2,14=-2,25=1,30=1,71=1,74=-5/1,2,3;
 4/5=5,16=3,69=1/1;
 5/5=2,38=5/2;
 7/30=1/1,2,3,16;
 1/5=1,8=10,11=1,18=40,26=3/3(-5);
 2/15=1,29=3/2;
 99/9=1/99;
 -----------------
 ts_zmat_initalOpt
 -----------------
 Symbolic Z-matrix:
 Charge =  0 Multiplicity = 1
 H
 C                    1    R2
 C                    2    R3       1    A3
 C                    2    R4       1    A4       3    D4       0
 H                    3    R5       2    A5       1    D5       0
 H                    4    R6       2    A6       1    D6       0
 C                    3    R7       2    A7       5    D7       0
 N                    4    R8       2    A8       6    D8       0
 H                    4    R9       2    A9       6    D9       0
 H                    7    R10      3    A10      2    D10      0
       Variables:
  R2                    1.07852                  
  R3                    1.39163                  
  R4                    1.40048                  
  R5                    1.07962                  
  R6                    1.29016                  
  R7                    1.39546                  
  R8                    1.45423                  
  R9                    1.07928                  
  R10                   1.07973                  
  A3                  127.31466                  
  A4                  126.04575                  
  A5                  126.41566                  
  A6                  115.14097                  
  A7                  107.55931                  
  A8                  109.24852                  
  A9                  129.66066                  
  A10                 127.98006                  
  D4                  179.699                    
  D5                   -1.20791                  
  D6                  122.15484                  
  D7                 -178.21577                  
  D8                   59.49723                  
  D9                 -139.4218                   
  D10                 174.78041                  
 

 GradGradGradGradGradGradGradGradGradGradGradGradGradGradGradGradGradGrad
 Berny optimization.
 Initialization pass.
                       ----------------------------
                       !    Initial Parameters    !
                       ! (Angstroms and Degrees)  !
 ----------------------                            ----------------------
 !      Name          Value   Derivative information (Atomic Units)     !
 ------------------------------------------------------------------------
 !       R2          1.0785   calculate D2E/DX2 analytically            !
 !       R3          1.3916   calculate D2E/DX2 analytically            !
 !       R4          1.4005   calculate D2E/DX2 analytically            !
 !       R5          1.0796   calculate D2E/DX2 analytically            !
 !       R6          1.2902   calculate D2E/DX2 analytically            !
 !       R7          1.3955   calculate D2E/DX2 analytically            !
 !       R8          1.4542   calculate D2E/DX2 analytically            !
 !       R9          1.0793   calculate D2E/DX2 analytically            !
 !       R10         1.0797   calculate D2E/DX2 analytically            !
 !       A3        127.3147   calculate D2E/DX2 analytically            !
 !       A4        126.0457   calculate D2E/DX2 analytically            !
 !       A5        126.4157   calculate D2E/DX2 analytically            !
 !       A6        115.141    calculate D2E/DX2 analytically            !
 !       A7        107.5593   calculate D2E/DX2 analytically            !
 !       A8        109.2485   calculate D2E/DX2 analytically            !
 !       A9        129.6607   calculate D2E/DX2 analytically            !
 !       A10       127.9801   calculate D2E/DX2 analytically            !
 !       D4        179.699    calculate D2E/DX2 analytically            !
 !       D5         -1.2079   calculate D2E/DX2 analytically            !
 !       D6        122.1548   calculate D2E/DX2 analytically            !
 !       D7       -178.2158   calculate D2E/DX2 analytically            !
 !       D8         59.4972   calculate D2E/DX2 analytically            !
 !       D9       -139.4218   calculate D2E/DX2 analytically            !
 !       D10       174.7804   calculate D2E/DX2 analytically            !
 ------------------------------------------------------------------------
 Trust Radius=1.00D-01 FncErr=1.00D-07 GrdErr=1.00D-06 EigMax=2.50D+02 EigMin=1.00D-04
 Number of steps in this run=     34 maximum allowed number of steps=    100.
 Search for a saddle point of order  1.
 GradGradGradGradGradGradGradGradGradGradGradGradGradGradGradGradGradGrad

 ---------------------------------------------------------------------------------------------------
                            Z-MATRIX (ANGSTROMS AND DEGREES)
   CD    Cent   Atom    N1       Length/X        N2       Alpha/Y        N3        Beta/Z          J
 ---------------------------------------------------------------------------------------------------
      1      1  H 
      2      2  C        1   1.078517(     1)
      3      3  C        2   1.391629(     2)      1  127.315(    10)
      4      4  C        2   1.400479(     3)      1  126.046(    11)      3  179.699(    18)      0
      5      5  H        3   1.079620(     4)      2  126.416(    12)      1   -1.208(    19)      0
      6      6  H        4   1.290158(     5)      2  115.141(    13)      1  122.155(    20)      0
      7      7  C        3   1.395455(     6)      2  107.559(    14)      5 -178.216(    21)      0
      8      8  N        4   1.454228(     7)      2  109.249(    15)      6   59.497(    22)      0
      9      9  H        4   1.079278(     8)      2  129.661(    16)      6 -139.422(    23)      0
     10     10  H        7   1.079730(     9)      3  127.980(    17)      2  174.780(    24)      0
 ---------------------------------------------------------------------------------------------------
                         Z-Matrix orientation:                         
 ---------------------------------------------------------------------
 Center     Atomic      Atomic             Coordinates (Angstroms)
 Number     Number       Type             X           Y           Z
 ---------------------------------------------------------------------
      1          1           0        0.000000    0.000000    0.000000
      2          6           0        0.000000    0.000000    1.078517
      3          6           0        1.106788    0.000000    1.922111
      4          6           0       -1.132338    0.005949    1.902602
      5          1           0        2.143056   -0.018315    1.619800
      6          1           0       -1.214952   -0.982420    2.727715
      7          6           0        0.635158   -0.013382    3.235382
      8          7           0       -0.712221    0.043324    3.294322
      9          1           0       -2.154862    0.257946    1.666415
     10          1           0        1.208712   -0.094603    4.146566
 ---------------------------------------------------------------------
                    Distance matrix (angstroms):
                    1          2          3          4          5
     1  H    0.000000
     2  C    1.078517   0.000000
     3  C    2.217993   1.391629   0.000000
     4  C    2.214073   1.400479   2.239219   0.000000
     5  H    2.686406   2.210432   1.079620   3.287669   0.000000
     6  H    3.143515   2.271808   2.646624   1.290158   3.665132
     7  C    3.297166   2.248482   1.395455   2.213757   2.209952
     8  N    3.370711   2.327859   2.278954   1.454228   3.310654
     9  H    2.736221   2.248464   3.281809   1.079278   4.307039
    10  H    4.320179   3.298918   2.228797   3.244380   2.695063
                    6          7          8          9         10
     6  H    0.000000
     7  C    2.149341   0.000000
     8  N    1.275121   1.349859   0.000000
     9  H    1.883692   3.212396   2.185716   0.000000
    10  H    2.945421   1.079730   2.106022   4.193933   0.000000
 Symmetry turned off by external request.
 Stoichiometry    C4H5N
 Framework group  C1[X(C4H5N)]
 Deg. of freedom    24
 Full point group                 C1      NOp   1
 Rotational constants (GHZ):           9.1999105           8.8525117           4.5996332
 Standard basis: def2TZVP (5D, 7F)
 The following finite field(s) will be applied:
 An electric field of              0.0003  0.0009  0.0023
   185 basis functions,   295 primitive gaussians,   210 cartesian basis functions
    18 alpha electrons       18 beta electrons
       nuclear repulsion energy       160.5895358700 Hartrees.
 NAtoms=   10 NActive=   10 NUniq=   10 SFac= 1.00D+00 NAtFMM=   60 NAOKFM=F Big=F
 Integral buffers will be    131072 words long.
 Raffenetti 2 integral format.
 Two-electron integral symmetry is turned off.
 One-electron integrals computed using PRISM.
   1 Symmetry operations used in ECPInt.
 ECPInt:  NShTT=    2850 NPrTT=    8640 LenC2=    2843 LenP2D=    7477.
 LDataN:  DoStor=T MaxTD1= 6 Len=  172
 NBasis=   185 RedAO= T EigKep=  5.73D-05  NBF=   185
 NBsUse=   185 1.00D-06 EigRej= -1.00D+00 NBFU=   185
 The nuclear repulsion energy is now       160.9483051748 hartrees.
 ExpMin= 9.52D-02 ExpMax= 1.97D+04 ExpMxC= 6.73D+02 IAcc=3 IRadAn=         5 AccDes= 0.00D+00
 Harris functional with IExCor=  402 and IRadAn=       5 diagonalized for initial guess.
 HarFok:  IExCor=  402 AccDes= 0.00D+00 IRadAn=         5 IDoV= 1 UseB2=F ITyADJ=14
 ICtDFT=  3500011 ScaDFX=  1.000000  1.000000  1.000000  1.000000
 FoFCou: FMM=F IPFlag=           0 FMFlag=      100000 FMFlg1=           0
         NFxFlg=           0 DoJE=T BraDBF=F KetDBF=T FulRan=T
         wScrn=  0.000000 ICntrl=       500 IOpCl=  0 I1Cent=   200000004 NGrid=           0
         NMat0=    1 NMatS0=      1 NMatT0=    0 NMatD0=    1 NMtDS0=    0 NMtDT0=    0
 Symmetry not used in FoFCou.
 Keep R1 ints in memory in canonical form, NReq=160464061.
 Requested convergence on RMS density matrix=1.00D-08 within 128 cycles.
 Requested convergence on MAX density matrix=1.00D-06.
 Requested convergence on             energy=1.00D-06.
 No special actions if energy rises.
 Integral accuracy reduced to 1.0D-05 until final iterations.
 Initial convergence to 1.0D-05 achieved.  Increase integral accuracy.
 SCF Done:  E(RB3LYP) =  -210.177246383     A.U. after   14 cycles
            NFock= 14  Conv=0.29D-08     -V/T= 2.0051
 DoSCS=F DFT=T ScalE2(SS,OS)=  1.000000  1.000000
 Range of M.O.s used for correlation:     1   185
 NBasis=   185 NAE=    18 NBE=    18 NFC=     0 NFV=     0
 NROrb=    185 NOA=    18 NOB=    18 NVA=   167 NVB=   167

 **** Warning!!: The largest alpha MO coefficient is  0.25238643D+02

   1 Symmetry operations used in ECPInt.
 ECPInt:  NShTT=    2850 NPrTT=    8640 LenC2=    2843 LenP2D=    7477.
 LDataN:  DoStor=T MaxTD1= 7 Len=  274
 Symmetrizing basis deriv contribution to polar:
 IMax=3 JMax=2 DiffMx= 0.00D+00
 G2DrvN: will do    11 centers at a time, making    1 passes.
 Calling FoFCou, ICntrl=  3107 FMM=F I1Cent=   0 AccDes= 0.00D+00.
 End of G2Drv F.D. properties file   721 does not exist.
 End of G2Drv F.D. properties file   722 does not exist.
 End of G2Drv F.D. properties file   788 does not exist.
          IDoAtm=1111111111
          Differentiating once with respect to nuclear coordinates.
 Keep R1 ints in memory in canonical form, NReq=160431867.
          There are    33 degrees of freedom in the 1st order CPHF.  IDoFFX=6 NUNeed=     0.
     27 vectors produced by pass  0 Test12= 9.11D-15 3.03D-09 XBig12= 1.12D-01 1.34D-01.
 AX will form    27 AO Fock derivatives at one time.
     27 vectors produced by pass  1 Test12= 9.11D-15 3.03D-09 XBig12= 1.24D-02 3.91D-02.
     27 vectors produced by pass  2 Test12= 9.11D-15 3.03D-09 XBig12= 2.12D-04 3.67D-03.
     27 vectors produced by pass  3 Test12= 9.11D-15 3.03D-09 XBig12= 7.25D-07 1.37D-04.
     27 vectors produced by pass  4 Test12= 9.11D-15 3.03D-09 XBig12= 1.38D-09 6.23D-06.
     26 vectors produced by pass  5 Test12= 9.11D-15 3.03D-09 XBig12= 3.03D-12 2.12D-07.
      6 vectors produced by pass  6 Test12= 9.11D-15 3.03D-09 XBig12= 5.50D-15 1.11D-08.
 InvSVY:  IOpt=1 It=  1 EMax= 2.11D-15
 Solved reduced A of dimension   167 with    27 vectors.
 End of Minotr F.D. properties file   721 does not exist.
 End of Minotr F.D. properties file   722 does not exist.
 End of Minotr F.D. properties file   788 does not exist.
   1 Symmetry operations used in ECPInt.
 ECPInt:  NShTT=    2850 NPrTT=    8640 LenC2=    2843 LenP2D=    7477.
 LDataN:  DoStor=T MaxTD1= 8 Len=  415
 Calling FoFJK, ICntrl=    100147 FMM=F ISym2X=0 I1Cent= 0 IOpClX= 0 NMat=1 NMatS=1 NMatT=0.
 -------------------------------------------------------------------
 Center     Atomic                   Forces (Hartrees/Bohr)
 Number     Number              X              Y              Z
 -------------------------------------------------------------------
      1        1          -0.000036471   -0.000144801    0.000095587
      2        6          -0.000060681    0.000054814    0.000037019
      3        6           0.000042560    0.000071074    0.000122573
      4        6           0.000321888    0.000191556   -0.000134646
      5        1          -0.000078517   -0.000119402   -0.000200942
      6        1          -0.000128405   -0.000108686   -0.000515540
      7        6          -0.000041750    0.000302635   -0.000441085
      8        7          -0.000163504    0.000227857    0.001140978
      9        1           0.000013883   -0.000247287   -0.000172286
     10        1           0.000130997   -0.000227760    0.000068341
 -------------------------------------------------------------------
 Cartesian Forces:  Max     0.001140978 RMS     0.000283302
 -----------------------------------------------------------------------------------------------
                       Internal Coordinate Forces (Hartree/Bohr or radian)
  Cent   Atom   N1       Length/X         N2         Alpha/Y        N3         Beta/Z          J
 -----------------------------------------------------------------------------------------------
      1  H 
      2  C        1  -0.000096(     1)
      3  C        2  -0.000231(     2)      1  -0.001508(    10)
      4  C        2   0.000152(     3)      1  -0.001204(    11)      3   0.000305(    18)     0
      5  H        3  -0.000017(     4)      2  -0.000441(    12)      1  -0.000205(    19)     0
      6  H        4  -0.000238(     5)      2  -0.000266(    13)      1  -0.000090(    20)     0
      7  C        3  -0.000382(     6)      2   0.000037(    14)      5  -0.000013(    21)     0
      8  N        4   0.001051(     7)      2   0.001334(    15)      6   0.000527(    22)     0
      9  H        4  -0.000033(     8)      2  -0.000245(    16)      6   0.000431(    23)     0
     10  H        7   0.000144(     9)      3  -0.000172(    17)      2  -0.000344(    24)     0
 -----------------------------------------------------------------------------------------------
 Internal  Forces:  Max     0.001507588 RMS     0.000577264

 GradGradGradGradGradGradGradGradGradGradGradGradGradGradGradGradGradGrad
 Berny optimization.
 Search for a saddle point.
 Step number   1 out of a maximum of   34
 All quantities printed in internal units (Hartrees-Bohrs-Radians)
 Swapping is turned off.
 Second derivative matrix not updated -- analytic derivatives used.
 ITU=  0
     Eigenvalues ---   -0.23972   0.01527   0.03647   0.04178   0.05795
     Eigenvalues ---    0.09876   0.12264   0.17530   0.20700   0.21992
     Eigenvalues ---    0.23334   0.28914   0.33764   0.36139   0.36418
     Eigenvalues ---    0.36738   0.36791   0.41018   0.47429   0.49538
     Eigenvalues ---    0.64877   2.12171   2.87357  21.97485
 Eigenvectors required to have negative eigenvalues:
                          D8        R6        D6        R8        R4
   1                    0.65970  -0.52625  -0.33643   0.18700   0.15312
                          D5        A8        A6        R3        D4
   1                   -0.13754  -0.12847  -0.12348  -0.12137  -0.11890
 RFO step:  Lambda0=1.534355548D-06 Lambda=-1.42357983D-05.
 Linear search not attempted -- option 19 set.
 Variable       Old X    -DE/DX   Delta X   Delta X   Delta X     New X
                                 (Linear)    (Quad)   (Total)
    R2        2.03810  -0.00010   0.00000  -0.00025  -0.00025   2.03785
    R3        2.62980  -0.00023   0.00000   0.00036   0.00036   2.63015
    R4        2.64652   0.00015   0.00000  -0.00178  -0.00178   2.64474
    R5        2.04019  -0.00002   0.00000  -0.00006  -0.00006   2.04012
    R6        2.43805  -0.00024   0.00000   0.00166   0.00166   2.43970
    R7        2.63703  -0.00038   0.00000  -0.00107  -0.00107   2.63596
    R8        2.74809   0.00105   0.00000   0.00229   0.00229   2.75038
    R9        2.03954  -0.00003   0.00000  -0.00014  -0.00014   2.03940
   R10        2.04039   0.00014   0.00000   0.00041   0.00041   2.04081
    A3        2.22206  -0.00151   0.00000  -0.00156  -0.00156   2.22050
    A4        2.19991  -0.00120   0.00000   0.00138   0.00138   2.20130
    A5        2.20637  -0.00044   0.00000  -0.00204  -0.00204   2.20433
    A6        2.00959  -0.00027   0.00000  -0.00278  -0.00278   2.00681
    A7        1.87726   0.00004   0.00000  -0.00001  -0.00001   1.87725
    A8        1.90675   0.00133   0.00000   0.00095   0.00095   1.90770
    A9        2.26301  -0.00024   0.00000   0.00002   0.00002   2.26302
   A10        2.23367  -0.00017   0.00000  -0.00108  -0.00108   2.23260
    D4        3.13634   0.00030   0.00000   0.00452   0.00452   3.14086
    D5       -0.02108  -0.00021   0.00000   0.00041   0.00041  -0.02067
    D6        2.13200  -0.00009   0.00000  -0.00364  -0.00364   2.12836
    D7       -3.11045  -0.00001   0.00000   0.00431   0.00431  -3.10614
    D8        1.03842   0.00053   0.00000  -0.00209  -0.00209   1.03634
    D9       -2.43337   0.00043   0.00000   0.00981   0.00981  -2.42355
   D10        3.05049  -0.00034   0.00000  -0.00604  -0.00604   3.04445
         Item               Value     Threshold  Converged?
 Maximum Force            0.001508     0.000450     NO 
 RMS     Force            0.000577     0.000300     NO 
 Maximum Displacement     0.009815     0.001800     NO 
 RMS     Displacement     0.003032     0.001200     NO 
 Predicted change in Energy=-6.350716D-06
 GradGradGradGradGradGradGradGradGradGradGradGradGradGradGradGradGradGrad

 ---------------------------------------------------------------------------------------------------
                            Z-MATRIX (ANGSTROMS AND DEGREES)
   CD    Cent   Atom    N1       Length/X        N2       Alpha/Y        N3        Beta/Z          J
 ---------------------------------------------------------------------------------------------------
      1      1  H 
      2      2  C        1   1.078385(     1)
      3      3  C        2   1.391817(     2)      1  127.226(    10)
      4      4  C        2   1.399539(     3)      1  126.125(    11)      3  179.958(    18)      0
      5      5  H        3   1.079586(     4)      2  126.299(    12)      1   -1.184(    19)      0
      6      6  H        4   1.291035(     5)      2  114.982(    13)      1  121.946(    20)      0
      7      7  C        3   1.394891(     6)      2  107.559(    14)      5 -177.969(    21)      0
      8      8  N        4   1.455438(     7)      2  109.303(    15)      6   59.378(    22)      0
      9      9  H        4   1.079207(     8)      2  129.662(    16)      6 -138.859(    23)      0
     10     10  H        7   1.079950(     9)      3  127.918(    17)      2  174.434(    24)      0
 ---------------------------------------------------------------------------------------------------
                         Z-Matrix orientation:                         
 ---------------------------------------------------------------------
 Center     Atomic      Atomic             Coordinates (Angstroms)
 Number     Number       Type             X           Y           Z
 ---------------------------------------------------------------------
      1          1           0        0.000000    0.000000    0.000000
      2          6           0        0.000000    0.000000    1.078385
      3          6           0        1.108249    0.000000    1.920371
      4          6           0       -1.130454    0.000832    1.903481
      5          1           0        2.143394   -0.017986    1.614336
      6          1           0       -1.206549   -0.992121    2.725079
      7          6           0        0.638883   -0.019655    3.233775
      8          7           0       -0.709449    0.032254    3.296344
      9          1           0       -2.155259    0.243288    1.667525
     10          1           0        1.214765   -0.107847    4.143101
 ---------------------------------------------------------------------
                    Distance matrix (angstroms):
                    1          2          3          4          5
     1  H    0.000000
     2  C    1.078385   0.000000
     3  C    2.217215   1.391817   0.000000
     4  C    2.213857   1.399539   2.238767   0.000000
     5  H    2.683383   2.209458   1.079586   3.286646   0.000000
     6  H    3.141038   2.269728   2.643889   1.291035   3.661258
     7  C    3.296340   2.248169   1.394891   2.213742   2.210461
     8  N    3.371979   2.328884   2.279993   1.455438   3.312158
     9  H    2.735868   2.247536   3.282317   1.079207   4.306915
    10  H    4.318862   3.298449   2.227892   3.244651   2.695381
                    6          7          8          9         10
     6  H    0.000000
     7  C    2.147110   0.000000
     8  N    1.273890   1.350781   0.000000
     9  H    1.882739   3.213956   2.188140   0.000000
    10  H    2.942021   1.079950   2.106947   4.196289   0.000000
 Symmetry turned off by external request.
 Stoichiometry    C4H5N
 Framework group  C1[X(C4H5N)]
 Deg. of freedom    24
 Full point group                 C1      NOp   1
 Rotational constants (GHZ):           9.2006062           8.8491774           4.5986611
 Standard basis: def2TZVP (5D, 7F)
 The following finite field(s) will be applied:
 An electric field of              0.0003  0.0009  0.0023
   185 basis functions,   295 primitive gaussians,   210 cartesian basis functions
    18 alpha electrons       18 beta electrons
       nuclear repulsion energy       160.5772786215 Hartrees.
 NAtoms=   10 NActive=   10 NUniq=   10 SFac= 1.00D+00 NAtFMM=   60 NAOKFM=F Big=F
 Integral buffers will be    131072 words long.
 Raffenetti 2 integral format.
 Two-electron integral symmetry is turned off.
 One-electron integrals computed using PRISM.
   1 Symmetry operations used in ECPInt.
 ECPInt:  NShTT=    2850 NPrTT=    8640 LenC2=    2843 LenP2D=    7479.
 LDataN:  DoStor=T MaxTD1= 6 Len=  172
 NBasis=   185 RedAO= T EigKep=  5.72D-05  NBF=   185
 NBsUse=   185 1.00D-06 EigRej= -1.00D+00 NBFU=   185
 The nuclear repulsion energy is now       160.9357465206 hartrees.
 Initial guess from the checkpoint file:  "checkpoint.chk"
 B after Tr=    -0.002462    0.007015   -0.000577
         Rot=    0.999997   -0.001908   -0.000738   -0.001389 Ang=  -0.28 deg.
 Keep R1 ints in memory in canonical form, NReq=160464061.
 Requested convergence on RMS density matrix=1.00D-08 within 128 cycles.
 Requested convergence on MAX density matrix=1.00D-06.
 Requested convergence on             energy=1.00D-06.
 No special actions if energy rises.
 SCF Done:  E(RB3LYP) =  -210.177252747     A.U. after    9 cycles
            NFock=  9  Conv=0.41D-08     -V/T= 2.0051
   1 Symmetry operations used in ECPInt.
 ECPInt:  NShTT=    2850 NPrTT=    8640 LenC2=    2843 LenP2D=    7479.
 LDataN:  DoStor=T MaxTD1= 7 Len=  274
 Calling FoFJK, ICntrl=      2127 FMM=F ISym2X=0 I1Cent= 0 IOpClX= 0 NMat=1 NMatS=1 NMatT=0.
 -------------------------------------------------------------------
 Center     Atomic                   Forces (Hartrees/Bohr)
 Number     Number              X              Y              Z
 -------------------------------------------------------------------
      1        1          -0.000183646    0.000001872    0.000000013
      2        6           0.000187263    0.000083234    0.000000380
      3        6           0.000001566   -0.000082684   -0.000002588
      4        6          -0.000008985   -0.000000725   -0.000001405
      5        1           0.000000153   -0.000000485   -0.000000241
      6        1          -0.000002772    0.000000862    0.000000132
      7        6           0.000009564    0.000001785    0.000004165
      8        7          -0.000003799   -0.000003526    0.000001741
      9        1          -0.000000665   -0.000000830   -0.000002286
     10        1           0.000001323    0.000000498    0.000000089
 -------------------------------------------------------------------
 Cartesian Forces:  Max     0.000187263 RMS     0.000052540
 -----------------------------------------------------------------------------------------------
                       Internal Coordinate Forces (Hartree/Bohr or radian)
  Cent   Atom   N1       Length/X         N2         Alpha/Y        N3         Beta/Z          J
 -----------------------------------------------------------------------------------------------
      1  H 
      2  C        1  -0.000000(     1)
      3  C        2   0.000011(     2)      1  -0.000050(    10)
      4  C        2   0.000012(     3)      1  -0.000049(    11)      3   0.000003(    18)     0
      5  H        3   0.000000(     4)      2  -0.000000(    12)      1  -0.000007(    19)     0
      6  H        4  -0.000000(     5)      2   0.000007(    13)      1  -0.000009(    20)     0
      7  C        3   0.000000(     6)      2   0.000033(    14)      5  -0.000006(    21)     0
      8  N        4   0.000000(     7)      2   0.000011(    15)      6  -0.000009(    22)     0
      9  H        4   0.000001(     8)      2  -0.000004(    16)      6   0.000002(    23)     0
     10  H        7   0.000001(     9)      3  -0.000002(    17)      2   0.000001(    24)     0
 -----------------------------------------------------------------------------------------------
 Internal  Forces:  Max     0.000050421 RMS     0.000016762

 GradGradGradGradGradGradGradGradGradGradGradGradGradGradGradGradGradGrad
 Berny optimization.
 Search for a saddle point.
 Step number   2 out of a maximum of   34
 All quantities printed in internal units (Hartrees-Bohrs-Radians)
 Swapping is turned off.
 Update second derivatives using D2CorN and points    1    2
 ITU=  0  0
     Eigenvalues ---   -0.23974   0.01523   0.03641   0.04180   0.05797
     Eigenvalues ---    0.09875   0.12263   0.17530   0.20699   0.21990
     Eigenvalues ---    0.23334   0.28906   0.33765   0.36139   0.36417
     Eigenvalues ---    0.36738   0.36791   0.41018   0.47429   0.49539
     Eigenvalues ---    0.64877   2.12173   2.87358  21.97481
 Eigenvectors required to have negative eigenvalues:
                          D8        R6        D6        R8        R4
   1                    0.65974  -0.52625  -0.33633   0.18694   0.15310
                          D5        A8        A6        R3        D4
   1                   -0.13756  -0.12843  -0.12347  -0.12136  -0.11902
 RFO step:  Lambda0=1.292480012D-11 Lambda= 0.00000000D+00.
 Linear search not attempted -- option 19 set.
 Variable       Old X    -DE/DX   Delta X   Delta X   Delta X     New X
                                 (Linear)    (Quad)   (Total)
    R2        2.03785  -0.00000   0.00000   0.00000   0.00000   2.03785
    R3        2.63015   0.00001   0.00000  -0.00000  -0.00000   2.63015
    R4        2.64474   0.00001   0.00000   0.00001   0.00001   2.64476
    R5        2.04012   0.00000   0.00000   0.00000   0.00000   2.04012
    R6        2.43970  -0.00000   0.00000  -0.00000  -0.00000   2.43970
    R7        2.63596   0.00000   0.00000   0.00000   0.00000   2.63597
    R8        2.75038   0.00000   0.00000   0.00002   0.00002   2.75040
    R9        2.03940   0.00000   0.00000   0.00000   0.00000   2.03941
   R10        2.04081   0.00000   0.00000   0.00000   0.00000   2.04081
    A3        2.22050  -0.00005   0.00000  -0.00001  -0.00001   2.22049
    A4        2.20130  -0.00005   0.00000   0.00000   0.00000   2.20130
    A5        2.20433  -0.00000   0.00000  -0.00000  -0.00000   2.20432
    A6        2.00681   0.00001   0.00000   0.00001   0.00001   2.00683
    A7        1.87725   0.00003   0.00000   0.00000   0.00000   1.87725
    A8        1.90770   0.00001   0.00000  -0.00001  -0.00001   1.90769
    A9        2.26302  -0.00000   0.00000  -0.00001  -0.00001   2.26301
   A10        2.23260  -0.00000   0.00000  -0.00000  -0.00000   2.23259
    D4        3.14086   0.00000   0.00000   0.00013   0.00013   3.14099
    D5       -0.02067  -0.00001   0.00000   0.00009   0.00009  -0.02058
    D6        2.12836  -0.00001   0.00000  -0.00009  -0.00009   2.12827
    D7       -3.10614  -0.00001   0.00000  -0.00000  -0.00000  -3.10614
    D8        1.03634  -0.00001   0.00000  -0.00000  -0.00000   1.03633
    D9       -2.42355   0.00000   0.00000   0.00001   0.00001  -2.42355
   D10        3.04445   0.00000   0.00000   0.00002   0.00002   3.04447
         Item               Value     Threshold  Converged?
 Maximum Force            0.000050     0.000450     YES
 RMS     Force            0.000017     0.000300     YES
 Maximum Displacement     0.000130     0.001800     YES
 RMS     Displacement     0.000038     0.001200     YES
 Predicted change in Energy=-6.848339D-10
 Optimization completed.
    -- Stationary point found.
                       ----------------------------
                       !   Optimized Parameters   !
                       ! (Angstroms and Degrees)  !
 ----------------------                            ----------------------
 !      Name          Value   Derivative information (Atomic Units)     !
 ------------------------------------------------------------------------
 !       R2          1.0784   -DE/DX =    0.0                           !
 !       R3          1.3918   -DE/DX =    0.0                           !
 !       R4          1.3995   -DE/DX =    0.0                           !
 !       R5          1.0796   -DE/DX =    0.0                           !
 !       R6          1.291    -DE/DX =    0.0                           !
 !       R7          1.3949   -DE/DX =    0.0                           !
 !       R8          1.4554   -DE/DX =    0.0                           !
 !       R9          1.0792   -DE/DX =    0.0                           !
 !       R10         1.0799   -DE/DX =    0.0                           !
 !       A3        127.2255   -DE/DX =   -0.0001                        !
 !       A4        126.1249   -DE/DX =    0.0                           !
 !       A5        126.2986   -DE/DX =    0.0                           !
 !       A6        114.982    -DE/DX =    0.0                           !
 !       A7        107.5586   -DE/DX =    0.0                           !
 !       A8        109.3032   -DE/DX =    0.0                           !
 !       A9        129.6616   -DE/DX =    0.0                           !
 !       A10       127.9183   -DE/DX =    0.0                           !
 !       D4        179.9578   -DE/DX =    0.0                           !
 !       D5         -1.1844   -DE/DX =    0.0                           !
 !       D6        121.9461   -DE/DX =    0.0                           !
 !       D7       -177.9687   -DE/DX =    0.0                           !
 !       D8         59.3776   -DE/DX =    0.0                           !
 !       D9       -138.8594   -DE/DX =    0.0                           !
 !       D10       174.4343   -DE/DX =    0.0                           !
 ------------------------------------------------------------------------
 GradGradGradGradGradGradGradGradGradGradGradGradGradGradGradGradGradGrad

 ---------------------------------------------------------------------------------------------------
                            Z-MATRIX (ANGSTROMS AND DEGREES)
   CD    Cent   Atom    N1       Length/X        N2       Alpha/Y        N3        Beta/Z          J
 ---------------------------------------------------------------------------------------------------
      1      1  H 
      2      2  C        1   1.078385(     1)
      3      3  C        2   1.391817(     2)      1  127.226(    10)
      4      4  C        2   1.399539(     3)      1  126.125(    11)      3  179.958(    18)      0
      5      5  H        3   1.079586(     4)      2  126.299(    12)      1   -1.184(    19)      0
      6      6  H        4   1.291035(     5)      2  114.982(    13)      1  121.946(    20)      0
      7      7  C        3   1.394891(     6)      2  107.559(    14)      5 -177.969(    21)      0
      8      8  N        4   1.455438(     7)      2  109.303(    15)      6   59.378(    22)      0
      9      9  H        4   1.079207(     8)      2  129.662(    16)      6 -138.859(    23)      0
     10     10  H        7   1.079950(     9)      3  127.918(    17)      2  174.434(    24)      0
 ---------------------------------------------------------------------------------------------------
                         Z-Matrix orientation:                         
 ---------------------------------------------------------------------
 Center     Atomic      Atomic             Coordinates (Angstroms)
 Number     Number       Type             X           Y           Z
 ---------------------------------------------------------------------
      1          1           0        0.000000    0.000000    0.000000
      2          6           0        0.000000    0.000000    1.078385
      3          6           0        1.108249    0.000000    1.920371
      4          6           0       -1.130454    0.000832    1.903481
      5          1           0        2.143394   -0.017986    1.614336
      6          1           0       -1.206549   -0.992121    2.725079
      7          6           0        0.638883   -0.019655    3.233775
      8          7           0       -0.709449    0.032254    3.296344
      9          1           0       -2.155259    0.243288    1.667525
     10          1           0        1.214765   -0.107847    4.143101
 ---------------------------------------------------------------------
                    Distance matrix (angstroms):
                    1          2          3          4          5
     1  H    0.000000
     2  C    1.078385   0.000000
     3  C    2.217215   1.391817   0.000000
     4  C    2.213857   1.399539   2.238767   0.000000
     5  H    2.683383   2.209458   1.079586   3.286646   0.000000
     6  H    3.141038   2.269728   2.643889   1.291035   3.661258
     7  C    3.296340   2.248169   1.394891   2.213742   2.210461
     8  N    3.371979   2.328884   2.279993   1.455438   3.312158
     9  H    2.735868   2.247536   3.282317   1.079207   4.306915
    10  H    4.318862   3.298449   2.227892   3.244651   2.695381
                    6          7          8          9         10
     6  H    0.000000
     7  C    2.147110   0.000000
     8  N    1.273890   1.350781   0.000000
     9  H    1.882739   3.213956   2.188140   0.000000
    10  H    2.942021   1.079950   2.106947   4.196289   0.000000
 Symmetry turned off by external request.
 Stoichiometry    C4H5N
 Framework group  C1[X(C4H5N)]
 Deg. of freedom    24
 Full point group                 C1      NOp   1
 Rotational constants (GHZ):           9.2006062           8.8491774           4.5986611
 1\1\GINC-BHC0108\FTS\RB3LYP\def2TZVP\C4H5N1\DHANAWAY\10-Jun-2022\1\\# 
 Opt=(TS, CalcFC, noeigentest, Z-matrix, MaxStep=10) Field=read NoSymm 
 B3LYP/Def2TZVP freq=noraman pop=none\\ts_zmat_initalOpt\\0,1\H\C,1,R2\
 C,2,R3,1,A3\C,2,R4,1,A4,3,D4,0\H,3,R5,2,A5,1,D5,0\H,4,R6,2,A6,1,D6,0\C
 ,3,R7,2,A7,5,D7,0\N,4,R8,2,A8,6,D8,0\H,4,R9,2,A9,6,D9,0\H,7,R10,3,A10,
 2,D10,0\\R2=1.0783853\R3=1.3918175\R4=1.39953869\R5=1.07958621\R6=1.29
 10345\R7=1.39489102\R8=1.45543839\R9=1.07920656\R10=1.07994967\A3=127.
 22554291\A4=126.12494107\A5=126.29860269\A6=114.9819536\A7=107.5585767
 6\A8=109.30315615\A9=129.66164486\A10=127.91828065\D4=179.95782851\D5=
 -1.18444456\D6=121.9460717\D7=-177.96872139\D8=59.37762663\D9=-138.859
 44886\D10=174.43426439\\Version=ES64L-G16RevA.03\HF=-210.1772527\RMSD=
 4.145e-09\RMSF=5.254e-05\Dipole=0.0821946,-0.2962357,-0.6428017\PG=C01
  [X(C4H5N1)]\\@


 HE THAT WALD REACHE THE SWEITE ROSE
 SULD NOW AND THEN BE SCRATCHED WT THE SCHARPE BREERES.
 -- PROVERBS AND REASONS OF THE YEAR 1585
           AS REPRINTED IN PAISLEY MAGAZINE 1828.
 Job cpu time:       0 days  0 hours 20 minutes 50.8 seconds.
 Elapsed time:       0 days  0 hours  1 minutes 50.8 seconds.
 File lengths (MBytes):  RWF=     34 Int=      0 D2E=      0 Chk=     32 Scr=      1
 Normal termination of Gaussian 16 at Fri Jun 10 22:29:56 2022.
 Link1:  Proceeding to internal job step number  2.
 --------------------------------------------------------------------
 #N Geom=AllCheck Guess=TCheck SCRF=Check GenChk RB3LYP/def2TZVP Freq
 --------------------------------------------------------------------
 1/5=1,8=10,10=4,11=1,29=7,30=1,38=1,40=1/1,3;
 2/12=2,15=1,40=1/2;
 3/5=44,7=101,11=2,14=-4,25=1,30=1,70=2,71=2,74=-5,116=1,140=1/1,2,3;
 4/5=101/1;
 5/5=2,38=6,98=1/2;
 8/6=4,10=90,11=11/1;
 11/6=1,8=1,9=11,15=111,16=1,31=1/1,2,10;
 10/6=1,31=1/2;
 7/8=1,10=1,25=1,30=1/1,2,3,16;
 1/5=1,8=10,10=4,11=1,30=1/3;
 99//99;
 Structure from the checkpoint file:  "checkpoint.chk"
 -----------------
 ts_zmat_initalOpt
 -----------------
 Charge =  0 Multiplicity = 1
 Z-Matrix found in chk file.
 H
 C,1,R2
 C,2,R3,1,A3
 C,2,R4,1,A4,3,D4,0
 H,3,R5,2,A5,1,D5,0
 H,4,R6,2,A6,1,D6,0
 C,3,R7,2,A7,5,D7,0
 N,4,R8,2,A8,6,D8,0
 H,4,R9,2,A9,6,D9,0
 H,7,R10,3,A10,2,D10,0
      Variables:
 R2=1.0783853
 R3=1.3918175
 R4=1.39953869
 R5=1.07958621
 R6=1.2910345
 R7=1.39489102
 R8=1.45543839
 R9=1.07920656
 R10=1.07994967
 A3=127.22554291
 A4=126.12494107
 A5=126.29860269
 A6=114.9819536
 A7=107.55857676
 A8=109.30315615
 A9=129.66164486
 A10=127.91828065
 D4=179.95782851
 D5=-1.18444456
 D6=121.9460717
 D7=-177.96872139
 D8=59.37762663
 D9=-138.85944886
 D10=174.43426439
 Recover connectivity data from disk.

 GradGradGradGradGradGradGradGradGradGradGradGradGradGradGradGradGradGrad
 Berny optimization.
 Initialization pass.
                       ----------------------------
                       !    Initial Parameters    !
                       ! (Angstroms and Degrees)  !
 ----------------------                            ----------------------
 !      Name          Value   Derivative information (Atomic Units)     !
 ------------------------------------------------------------------------
 !       R2          1.0784   calculate D2E/DX2 analytically            !
 !       R3          1.3918   calculate D2E/DX2 analytically            !
 !       R4          1.3995   calculate D2E/DX2 analytically            !
 !       R5          1.0796   calculate D2E/DX2 analytically            !
 !       R6          1.291    calculate D2E/DX2 analytically            !
 !       R7          1.3949   calculate D2E/DX2 analytically            !
 !       R8          1.4554   calculate D2E/DX2 analytically            !
 !       R9          1.0792   calculate D2E/DX2 analytically            !
 !       R10         1.0799   calculate D2E/DX2 analytically            !
 !       A3        127.2255   calculate D2E/DX2 analytically            !
 !       A4        126.1249   calculate D2E/DX2 analytically            !
 !       A5        126.2986   calculate D2E/DX2 analytically            !
 !       A6        114.982    calculate D2E/DX2 analytically            !
 !       A7        107.5586   calculate D2E/DX2 analytically            !
 !       A8        109.3032   calculate D2E/DX2 analytically            !
 !       A9        129.6616   calculate D2E/DX2 analytically            !
 !       A10       127.9183   calculate D2E/DX2 analytically            !
 !       D4        179.9578   calculate D2E/DX2 analytically            !
 !       D5         -1.1844   calculate D2E/DX2 analytically            !
 !       D6        121.9461   calculate D2E/DX2 analytically            !
 !       D7       -177.9687   calculate D2E/DX2 analytically            !
 !       D8         59.3776   calculate D2E/DX2 analytically            !
 !       D9       -138.8594   calculate D2E/DX2 analytically            !
 !       D10       174.4343   calculate D2E/DX2 analytically            !
 ------------------------------------------------------------------------
 Trust Radius=1.00D-01 FncErr=1.00D-07 GrdErr=1.00D-07 EigMax=2.50D+02 EigMin=1.00D-04
 Number of steps in this run=      2 maximum allowed number of steps=      2.
 Search for a saddle point of order  1.
 GradGradGradGradGradGradGradGradGradGradGradGradGradGradGradGradGradGrad

                          Input orientation:                          
 ---------------------------------------------------------------------
 Center     Atomic      Atomic             Coordinates (Angstroms)
 Number     Number       Type             X           Y           Z
 ---------------------------------------------------------------------
      1          1           0        0.000000    0.000000    0.000000
      2          6           0        0.000000    0.000000    1.078385
      3          6           0        1.108249    0.000000    1.920371
      4          6           0       -1.130454    0.000832    1.903481
      5          1           0        2.143394   -0.017986    1.614336
      6          1           0       -1.206549   -0.992121    2.725079
      7          6           0        0.638883   -0.019655    3.233775
      8          7           0       -0.709449    0.032254    3.296344
      9          1           0       -2.155259    0.243288    1.667525
     10          1           0        1.214765   -0.107847    4.143101
 ---------------------------------------------------------------------
                    Distance matrix (angstroms):
                    1          2          3          4          5
     1  H    0.000000
     2  C    1.078385   0.000000
     3  C    2.217215   1.391817   0.000000
     4  C    2.213857   1.399539   2.238767   0.000000
     5  H    2.683383   2.209458   1.079586   3.286646   0.000000
     6  H    3.141038   2.269728   2.643889   1.291035   3.661258
     7  C    3.296340   2.248169   1.394891   2.213742   2.210461
     8  N    3.371979   2.328884   2.279993   1.455438   3.312158
     9  H    2.735868   2.247536   3.282317   1.079207   4.306915
    10  H    4.318862   3.298449   2.227892   3.244651   2.695381
                    6          7          8          9         10
     6  H    0.000000
     7  C    2.147110   0.000000
     8  N    1.273890   1.350781   0.000000
     9  H    1.882739   3.213956   2.188140   0.000000
    10  H    2.942021   1.079950   2.106947   4.196289   0.000000
 Symmetry turned off by external request.
 Stoichiometry    C4H5N
 Framework group  C1[X(C4H5N)]
 Deg. of freedom    24
 Full point group                 C1      NOp   1
 Rotational constants (GHZ):           9.2006062           8.8491774           4.5986611
 Standard basis: def2TZVP (5D, 7F)
 The following finite field(s) will be applied:
 An electric field of              0.0003  0.0009  0.0023
   185 basis functions,   295 primitive gaussians,   210 cartesian basis functions
    18 alpha electrons       18 beta electrons
       nuclear repulsion energy       160.5772786215 Hartrees.
 NAtoms=   10 NActive=   10 NUniq=   10 SFac= 1.00D+00 NAtFMM=   60 NAOKFM=F Big=F
 Integral buffers will be    131072 words long.
 Raffenetti 2 integral format.
 Two-electron integral symmetry is turned off.
 One-electron integrals computed using PRISM.
   1 Symmetry operations used in ECPInt.
 ECPInt:  NShTT=    2850 NPrTT=    8640 LenC2=    2843 LenP2D=    7479.
 LDataN:  DoStor=T MaxTD1= 6 Len=  172
 NBasis=   185 RedAO= T EigKep=  5.72D-05  NBF=   185
 NBsUse=   185 1.00D-06 EigRej= -1.00D+00 NBFU=   185
 The nuclear repulsion energy is now       160.9357465206 hartrees.
 Initial guess from the checkpoint file:  "checkpoint.chk"
 B after Tr=     0.000000    0.000000    0.000000
         Rot=    1.000000    0.000000    0.000000    0.000000 Ang=   0.00 deg.
 Keep R1 ints in memory in canonical form, NReq=160464061.
 Requested convergence on RMS density matrix=1.00D-08 within 128 cycles.
 Requested convergence on MAX density matrix=1.00D-06.
 Requested convergence on             energy=1.00D-06.
 No special actions if energy rises.
 SCF Done:  E(RB3LYP) =  -210.177252747     A.U. after    1 cycles
            NFock=  1  Conv=0.15D-08     -V/T= 2.0051
 DoSCS=F DFT=T ScalE2(SS,OS)=  1.000000  1.000000
 Range of M.O.s used for correlation:     1   185
 NBasis=   185 NAE=    18 NBE=    18 NFC=     0 NFV=     0
 NROrb=    185 NOA=    18 NOB=    18 NVA=   167 NVB=   167

 **** Warning!!: The largest alpha MO coefficient is  0.25280133D+02

   1 Symmetry operations used in ECPInt.
 ECPInt:  NShTT=    2850 NPrTT=    8640 LenC2=    2843 LenP2D=    7479.
 LDataN:  DoStor=T MaxTD1= 7 Len=  274
 Symmetrizing basis deriv contribution to polar:
 IMax=3 JMax=2 DiffMx= 0.00D+00
 G2DrvN: will do    11 centers at a time, making    1 passes.
 Calling FoFCou, ICntrl=  3107 FMM=F I1Cent=   0 AccDes= 0.00D+00.
 End of G2Drv F.D. properties file   721 does not exist.
 End of G2Drv F.D. properties file   722 does not exist.
 End of G2Drv F.D. properties file   788 does not exist.
          IDoAtm=1111111111
          Differentiating once with respect to electric field.
                with respect to dipole field.
          Differentiating once with respect to nuclear coordinates.
 Keep R1 ints in memory in canonical form, NReq=160431867.
          There are    33 degrees of freedom in the 1st order CPHF.  IDoFFX=6 NUNeed=     3.
     30 vectors produced by pass  0 Test12= 9.11D-15 3.03D-09 XBig12= 6.58D+01 4.50D+00.
 AX will form    30 AO Fock derivatives at one time.
     30 vectors produced by pass  1 Test12= 9.11D-15 3.03D-09 XBig12= 1.44D+01 5.88D-01.
     30 vectors produced by pass  2 Test12= 9.11D-15 3.03D-09 XBig12= 1.38D-01 8.02D-02.
     30 vectors produced by pass  3 Test12= 9.11D-15 3.03D-09 XBig12= 4.76D-04 3.81D-03.
     30 vectors produced by pass  4 Test12= 9.11D-15 3.03D-09 XBig12= 8.33D-07 1.15D-04.
     27 vectors produced by pass  5 Test12= 9.11D-15 3.03D-09 XBig12= 1.65D-09 5.51D-06.
      6 vectors produced by pass  6 Test12= 9.11D-15 3.03D-09 XBig12= 1.97D-12 1.74D-07.
      2 vectors produced by pass  7 Test12= 9.11D-15 3.03D-09 XBig12= 2.26D-15 6.44D-09.
 InvSVY:  IOpt=1 It=  1 EMax= 9.77D-15
 Solved reduced A of dimension   185 with    33 vectors.
 Isotropic polarizability for W=    0.000000       50.51 Bohr**3.
 End of Minotr F.D. properties file   721 does not exist.
 End of Minotr F.D. properties file   722 does not exist.
 End of Minotr F.D. properties file   788 does not exist.
   1 Symmetry operations used in ECPInt.
 ECPInt:  NShTT=    2850 NPrTT=    8640 LenC2=    2843 LenP2D=    7479.
 LDataN:  DoStor=T MaxTD1= 8 Len=  415
 Calling FoFJK, ICntrl=    100127 FMM=F ISym2X=0 I1Cent= 0 IOpClX= 0 NMat=1 NMatS=1 NMatT=0.
 Full mass-weighted force constant matrix:
 Low frequencies ----1493.1429   -6.2990   -0.0007   -0.0006   -0.0001    7.0760
 Low frequencies ---   12.9576  588.9434  640.1991
 ******    1 imaginary frequencies (negative Signs) ****** 
 Diagonal vibrational polarizability:
        1.8501031       5.2312503       2.5316831
 Harmonic frequencies (cm**-1), IR intensities (KM/Mole), Raman scattering
 activities (A**4/AMU), depolarization ratios for plane and unpolarized
 incident light, reduced masses (AMU), force constants (mDyne/A),
 and normal coordinates:
                      1                      2                      3
                      A                      A                      A
 Frequencies --  -1493.1427               588.9433               640.1990
 Red. masses --      1.2123                 2.2315                 3.8470
 Frc consts  --      1.5924                 0.4560                 0.9290
 IR Inten    --    107.0617                 2.5929                 3.4922
  Atom  AN      X      Y      Z        X      Y      Z        X      Y      Z
     1   1    -0.01   0.00   0.00    -0.00  -0.28   0.00     0.03   0.53   0.01
     2   6    -0.03   0.00   0.00     0.01  -0.19   0.00     0.01   0.15   0.01
     3   6     0.01  -0.00   0.03     0.00   0.22  -0.00     0.00  -0.01  -0.00
     4   6     0.03   0.06  -0.05     0.00   0.05   0.00    -0.02  -0.31  -0.01
     5   1     0.00   0.01   0.01     0.01   0.56   0.00     0.00   0.14  -0.01
     6   1     0.23   0.15   0.94    -0.38   0.16   0.13    -0.15   0.08   0.42
     7   6     0.04  -0.01  -0.02    -0.01  -0.15  -0.01    -0.01  -0.18   0.00
     8   7    -0.05  -0.05  -0.04     0.01   0.04  -0.00     0.03   0.30  -0.02
     9   1    -0.03  -0.16  -0.01     0.10   0.40  -0.05    -0.01  -0.33  -0.07
    10   1     0.00   0.01   0.00    -0.00  -0.36  -0.03    -0.04  -0.37   0.01
                      4                      5                      6
                      A                      A                      A
 Frequencies --    750.5872               844.4130               868.7758
 Red. masses --      1.1352                 1.4317                 1.7414
 Frc consts  --      0.3768                 0.6015                 0.7744
 IR Inten    --     90.8927                 6.4661                17.3469
  Atom  AN      X      Y      Z        X      Y      Z        X      Y      Z
     1   1    -0.01   0.57   0.01     0.02  -0.36   0.03     0.12  -0.50   0.08
     2   6     0.00  -0.04   0.01    -0.02   0.04   0.03    -0.02   0.10   0.08
     3   6     0.01  -0.08  -0.00     0.01  -0.01   0.02     0.02   0.03   0.03
     4   6     0.00  -0.03   0.01    -0.03   0.05   0.01    -0.09  -0.10  -0.01
     5   1     0.01   0.37  -0.01    -0.01   0.29  -0.06    -0.02  -0.38  -0.10
     6   1    -0.28   0.03   0.13     0.05  -0.01  -0.14    -0.23  -0.01   0.18
     7   6     0.00   0.03   0.00     0.02  -0.15   0.01     0.04   0.03   0.03
     8   7     0.01  -0.03  -0.03     0.03   0.03  -0.06     0.06  -0.04  -0.13
     9   1     0.10   0.44   0.04    -0.13  -0.33   0.06     0.02   0.61   0.19
    10   1    -0.00   0.46   0.05    -0.05   0.76   0.14    -0.08   0.00   0.10
                      7                      8                      9
                      A                      A                      A
 Frequencies --    881.3057               890.3037               938.3592
 Red. masses --      2.7069                 3.8909                 1.5321
 Frc consts  --      1.2387                 1.8171                 0.7948
 IR Inten    --      6.3709                 3.9319                 3.0421
  Atom  AN      X      Y      Z        X      Y      Z        X      Y      Z
     1   1    -0.07   0.41   0.24    -0.31  -0.35   0.13    -0.09  -0.45  -0.03
     2   6    -0.03  -0.09   0.23     0.08   0.08   0.13     0.01   0.09  -0.03
     3   6     0.16  -0.02   0.00     0.25   0.01  -0.13    -0.01  -0.14  -0.02
     4   6    -0.16   0.07   0.02     0.01  -0.04   0.09     0.06  -0.00   0.08
     5   1     0.09   0.20  -0.24     0.31  -0.15   0.07     0.01   0.75   0.01
     6   1     0.19  -0.07  -0.23    -0.25   0.04   0.19    -0.07  -0.04   0.04
     7   6     0.04   0.05  -0.05    -0.13  -0.03  -0.25    -0.03   0.08   0.01
     8   7     0.01   0.01  -0.16    -0.17  -0.01   0.14    -0.02  -0.01  -0.05
     9   1    -0.23  -0.34  -0.10     0.14   0.15  -0.27     0.05  -0.03   0.11
    10   1    -0.23  -0.44   0.07    -0.05   0.31  -0.27    -0.09  -0.39   0.01
                     10                     11                     12
                      A                      A                      A
 Frequencies --    955.1322              1065.6530              1090.4401
 Red. masses --      2.7061                 1.3725                 1.2499
 Frc consts  --      1.4545                 0.9183                 0.8757
 IR Inten    --     36.5412                10.2634                 1.4175
  Atom  AN      X      Y      Z        X      Y      Z        X      Y      Z
     1   1    -0.52   0.23  -0.04     0.29   0.05  -0.06     0.70   0.06  -0.00
     2   6    -0.02  -0.04  -0.05     0.03  -0.02  -0.05     0.09  -0.01  -0.00
     3   6    -0.00   0.08  -0.02     0.02  -0.00   0.05    -0.02   0.01  -0.07
     4   6     0.19   0.01   0.23    -0.09   0.01   0.04     0.00   0.02   0.07
     5   1     0.04  -0.45   0.16     0.20   0.04   0.69    -0.15  -0.07  -0.50
     6   1    -0.05  -0.12   0.01     0.04  -0.00   0.04    -0.21   0.04   0.13
     7   6    -0.09  -0.03   0.01    -0.04   0.00  -0.10    -0.05   0.01  -0.01
     8   7    -0.03   0.01  -0.19     0.05   0.00  -0.01    -0.03  -0.01   0.01
     9   1     0.14  -0.12   0.36    -0.22  -0.04   0.50    -0.10  -0.19   0.29
    10   1    -0.31   0.04   0.15     0.11  -0.02  -0.21    -0.13  -0.01   0.04
                     13                     14                     15
                      A                      A                      A
 Frequencies --   1135.7217              1174.6646              1252.8097
 Red. masses --      2.2320                 1.1405                 1.7408
 Frc consts  --      1.6962                 0.9272                 1.6098
 IR Inten    --      2.7766                25.0322                 1.5403
  Atom  AN      X      Y      Z        X      Y      Z        X      Y      Z
     1   1    -0.31   0.01  -0.19     0.09   0.01   0.01    -0.15   0.01  -0.04
     2   6    -0.00  -0.01  -0.17    -0.00  -0.02   0.01     0.02  -0.00  -0.04
     3   6     0.19   0.00  -0.07     0.00   0.00   0.00     0.06   0.00   0.03
     4   6    -0.11   0.00  -0.05     0.02  -0.03  -0.01    -0.02  -0.00   0.01
     5   1     0.21   0.01  -0.09    -0.05   0.11  -0.19     0.02  -0.02  -0.16
     6   1    -0.02   0.06   0.07     0.77  -0.18  -0.08    -0.25  -0.02  -0.12
     7   6     0.01   0.00   0.14    -0.01  -0.04  -0.02     0.12  -0.01   0.08
     8   7    -0.01  -0.00   0.08    -0.07   0.04   0.01    -0.17   0.02  -0.05
     9   1    -0.23  -0.00   0.39     0.07   0.43   0.32    -0.12  -0.08   0.34
    10   1    -0.51  -0.03   0.48    -0.03   0.01  -0.01     0.76  -0.01  -0.31
                     16                     17                     18
                      A                      A                      A
 Frequencies --   1312.7228              1430.9027              1482.8769
 Red. masses --      1.8701                 2.8568                 3.1776
 Frc consts  --      1.8987                 3.4463                 4.1168
 IR Inten    --      2.5658                 7.0857                 3.2979
  Atom  AN      X      Y      Z        X      Y      Z        X      Y      Z
     1   1    -0.54  -0.00   0.09    -0.29   0.01  -0.04    -0.07   0.00  -0.23
     2   6     0.08  -0.00   0.08     0.23  -0.01  -0.03    -0.03   0.00  -0.19
     3   6    -0.02  -0.01   0.05    -0.05   0.00  -0.13     0.11  -0.00   0.32
     4   6     0.05   0.00  -0.15    -0.17   0.03   0.11    -0.07  -0.00   0.12
     5   1    -0.15   0.02  -0.35    -0.01   0.00  -0.01    -0.19  -0.00  -0.70
     6   1    -0.11   0.16   0.02     0.42  -0.14   0.30     0.01  -0.08   0.04
     7   6    -0.15   0.01  -0.02    -0.14  -0.02   0.15    -0.07   0.01  -0.13
     8   7     0.10  -0.01   0.03     0.08  -0.01  -0.06     0.06  -0.00  -0.00
     9   1    -0.14  -0.12   0.58    -0.04   0.12  -0.48     0.05   0.05  -0.40
    10   1     0.13  -0.01  -0.21     0.42   0.05  -0.18     0.02   0.01  -0.21
                     19                     20                     21
                      A                      A                      A
 Frequencies --   1510.0144              2182.9772              3211.4273
 Red. masses --      3.5287                 1.0725                 1.0887
 Frc consts  --      4.7405                 3.0113                 6.6155
 IR Inten    --      1.4410                15.0948                 4.4127
  Atom  AN      X      Y      Z        X      Y      Z        X      Y      Z
     1   1    -0.54  -0.00  -0.00     0.01   0.00  -0.01     0.00  -0.00  -0.16
     2   6     0.28  -0.00  -0.01     0.00   0.00  -0.01    -0.00  -0.00   0.01
     3   6    -0.19   0.00   0.07    -0.00  -0.00  -0.00     0.05  -0.00  -0.01
     4   6    -0.09  -0.00   0.04    -0.01  -0.05   0.04    -0.01   0.00  -0.00
     5   1    -0.25  -0.01   0.03    -0.00   0.01  -0.00    -0.54   0.01   0.16
     6   1    -0.07   0.00  -0.01     0.21   0.96  -0.18    -0.00  -0.00   0.00
     7   6     0.24   0.00  -0.16    -0.00   0.00   0.01    -0.04   0.01  -0.06
     8   7    -0.09   0.00   0.03    -0.01  -0.03  -0.02     0.00  -0.00  -0.00
     9   1    -0.13   0.02   0.09     0.03   0.00  -0.02     0.11  -0.03   0.02
    10   1    -0.54  -0.01   0.31     0.02   0.01  -0.01     0.42  -0.06   0.67
                     22                     23                     24
                      A                      A                      A
 Frequencies --   3226.5656              3230.4108              3247.7634
 Red. masses --      1.0930                 1.0951                 1.1042
 Frc consts  --      6.7042                 6.7334                 6.8624
 IR Inten    --      5.2599                 3.8652                 0.8378
  Atom  AN      X      Y      Z        X      Y      Z        X      Y      Z
     1   1     0.00  -0.00   0.55    -0.01  -0.00  -0.08    -0.00  -0.00   0.81
     2   6     0.00   0.00  -0.05     0.01   0.00   0.01     0.00   0.00  -0.08
     3   6    -0.04   0.00   0.01    -0.05   0.00   0.02     0.03  -0.00  -0.01
     4   6     0.04  -0.01   0.01    -0.06   0.01  -0.01    -0.04   0.01  -0.01
     5   1     0.41  -0.01  -0.13     0.58  -0.01  -0.17    -0.33   0.01   0.09
     6   1     0.01   0.01   0.00    -0.01  -0.01   0.00    -0.00  -0.00   0.00
     7   6    -0.02   0.00  -0.04    -0.01   0.00  -0.03     0.01  -0.00   0.01
     8   7     0.00  -0.00   0.00     0.00   0.00  -0.00    -0.00   0.00   0.00
     9   1    -0.49   0.12  -0.11     0.68  -0.16   0.15     0.42  -0.10   0.09
    10   1     0.26  -0.04   0.41     0.16  -0.03   0.26    -0.07   0.01  -0.12

 -------------------
 - Thermochemistry -
 -------------------
 Temperature   298.150 Kelvin.  Pressure   1.00000 Atm.
 Atom     1 has atomic number  1 and mass   1.00783
 Atom     2 has atomic number  6 and mass  12.00000
 Atom     3 has atomic number  6 and mass  12.00000
 Atom     4 has atomic number  6 and mass  12.00000
 Atom     5 has atomic number  1 and mass   1.00783
 Atom     6 has atomic number  1 and mass   1.00783
 Atom     7 has atomic number  6 and mass  12.00000
 Atom     8 has atomic number  7 and mass  14.00307
 Atom     9 has atomic number  1 and mass   1.00783
 Atom    10 has atomic number  1 and mass   1.00783
 Molecular mass:    67.04220 amu.
 Principal axes and moments of inertia in atomic units:
                           1         2         3
     Eigenvalues --   196.15460 203.94452 392.44927
           X           -0.39001   0.92081   0.00015
           Y           -0.00911  -0.00402   0.99995
           Z            0.92076   0.38999   0.00996
 This molecule is an asymmetric top.
 Rotational symmetry number  1.
 Rotational temperatures (Kelvin)      0.44156     0.42469     0.22070
 Rotational constants (GHZ):           9.20061     8.84918     4.59866
    1 imaginary frequencies ignored.
 Zero-point vibrational energy     202844.6 (Joules/Mol)
                                   48.48102 (Kcal/Mol)
 Warning -- explicit consideration of   1 degrees of freedom as
           vibrations may cause significant error
 Vibrational temperatures:    847.36   921.10  1079.93  1214.92  1249.97
          (Kelvin)           1268.00  1280.95  1350.09  1374.22  1533.24
                             1568.90  1634.05  1690.08  1802.51  1888.72
                             2058.75  2133.53  2172.57  3140.82  4620.53
                             4642.31  4647.84  4672.81
 
 Zero-point correction=                           0.077259 (Hartree/Particle)
 Thermal correction to Energy=                    0.080958
 Thermal correction to Enthalpy=                  0.081903
 Thermal correction to Gibbs Free Energy=         0.050975
 Sum of electronic and zero-point Energies=           -210.099993
 Sum of electronic and thermal Energies=              -210.096294
 Sum of electronic and thermal Enthalpies=            -210.095350
 Sum of electronic and thermal Free Energies=         -210.126278
 
                     E (Thermal)             CV                S
                      KCal/Mol        Cal/Mol-Kelvin    Cal/Mol-Kelvin
 Total                   50.802             13.383             65.093
 Electronic               0.000              0.000              0.000
 Translational            0.889              2.981             38.526
 Rotational               0.889              2.981             24.266
 Vibrational             49.025              7.421              2.301
 Vibration     1          0.946              1.055              0.469
                       Q            Log10(Q)             Ln(Q)
 Total Bot       0.357537D-23        -23.446679        -53.987974
 Total V=0       0.123072D+13         12.090160         27.838621
 Vib (Bot)       0.369447D-35        -35.432448        -81.586227
 Vib (Bot)    1  0.256417D+00         -0.591054         -1.360952
 Vib (V=0)       0.127172D+01          0.104391          0.240369
 Vib (V=0)    1  0.106192D+01          0.026090          0.060075
 Electronic      0.100000D+01          0.000000          0.000000
 Translational   0.215763D+08          7.333976         16.887104
 Rotational      0.448531D+05          4.651793         10.711148
 -------------------------------------------------------------------
 Center     Atomic                   Forces (Hartrees/Bohr)
 Number     Number              X              Y              Z
 -------------------------------------------------------------------
      1        1          -0.000183648    0.000001875    0.000000040
      2        6           0.000187253    0.000083237    0.000000349
      3        6           0.000001600   -0.000082696   -0.000002626
      4        6          -0.000008986   -0.000000720   -0.000001430
      5        1           0.000000137   -0.000000483   -0.000000229
      6        1          -0.000002775    0.000000841    0.000000134
      7        6           0.000009614    0.000001792    0.000004169
      8        7          -0.000003869   -0.000003509    0.000001762
      9        1          -0.000000662   -0.000000832   -0.000002281
     10        1           0.000001336    0.000000496    0.000000112
 -------------------------------------------------------------------
 Cartesian Forces:  Max     0.000187253 RMS     0.000052540
 -----------------------------------------------------------------------------------------------
                       Internal Coordinate Forces (Hartree/Bohr or radian)
  Cent   Atom   N1       Length/X         N2         Alpha/Y        N3         Beta/Z          J
 -----------------------------------------------------------------------------------------------
      1  H 
      2  C        1  -0.000000(     1)
      3  C        2   0.000011(     2)      1  -0.000051(    10)
      4  C        2   0.000012(     3)      1  -0.000049(    11)      3   0.000003(    18)     0
      5  H        3   0.000000(     4)      2  -0.000000(    12)      1  -0.000007(    19)     0
      6  H        4  -0.000000(     5)      2   0.000007(    13)      1  -0.000009(    20)     0
      7  C        3   0.000000(     6)      2   0.000033(    14)      5  -0.000006(    21)     0
      8  N        4   0.000000(     7)      2   0.000012(    15)      6  -0.000009(    22)     0
      9  H        4   0.000001(     8)      2  -0.000004(    16)      6   0.000002(    23)     0
     10  H        7   0.000001(     9)      3  -0.000002(    17)      2   0.000001(    24)     0
 -----------------------------------------------------------------------------------------------
 Internal  Forces:  Max     0.000050719 RMS     0.000016858

 GradGradGradGradGradGradGradGradGradGradGradGradGradGradGradGradGradGrad
 Berny optimization.
 Search for a saddle point.
 Step number   1 out of a maximum of    2
 All quantities printed in internal units (Hartrees-Bohrs-Radians)
 Swapping is turned off.
 Second derivative matrix not updated -- analytic derivatives used.
 ITU=  0
     Eigenvalues ---   -0.23957   0.01496   0.03643   0.04167   0.05802
     Eigenvalues ---    0.09875   0.12256   0.17541   0.20695   0.22047
     Eigenvalues ---    0.23326   0.28780   0.33859   0.36153   0.36378
     Eigenvalues ---    0.36760   0.36808   0.41099   0.47495   0.49688
     Eigenvalues ---    0.64886   2.12097   2.87677  21.87398
 Eigenvectors required to have negative eigenvalues:
                          D8        R6        D6        R8        R4
   1                    0.65882  -0.52831  -0.33564   0.18671   0.15245
                          D5        A8        A6        R3        D4
   1                   -0.13737  -0.12723  -0.12459  -0.12122  -0.11949
 Angle between quadratic step and forces=  84.90 degrees.
 Linear search not attempted -- option 19 set.
 Variable       Old X    -DE/DX   Delta X   Delta X   Delta X     New X
                                 (Linear)    (Quad)   (Total)
    R2        2.03785  -0.00000   0.00000   0.00000   0.00000   2.03785
    R3        2.63015   0.00001   0.00000  -0.00000  -0.00000   2.63015
    R4        2.64474   0.00001   0.00000   0.00001   0.00001   2.64476
    R5        2.04012   0.00000   0.00000   0.00000   0.00000   2.04012
    R6        2.43970  -0.00000   0.00000  -0.00000  -0.00000   2.43970
    R7        2.63596   0.00000   0.00000   0.00000   0.00000   2.63597
    R8        2.75038   0.00000   0.00000   0.00002   0.00002   2.75040
    R9        2.03940   0.00000   0.00000   0.00000   0.00000   2.03941
   R10        2.04081   0.00000   0.00000   0.00000   0.00000   2.04081
    A3        2.22050  -0.00005   0.00000  -0.00001  -0.00001   2.22049
    A4        2.20130  -0.00005   0.00000   0.00000   0.00000   2.20130
    A5        2.20433  -0.00000   0.00000  -0.00000  -0.00000   2.20432
    A6        2.00681   0.00001   0.00000   0.00001   0.00001   2.00683
    A7        1.87725   0.00003   0.00000   0.00000   0.00000   1.87725
    A8        1.90770   0.00001   0.00000  -0.00001  -0.00001   1.90769
    A9        2.26302  -0.00000   0.00000  -0.00001  -0.00001   2.26301
   A10        2.23260  -0.00000   0.00000  -0.00000  -0.00000   2.23259
    D4        3.14086   0.00000   0.00000   0.00014   0.00014   3.14099
    D5       -0.02067  -0.00001   0.00000   0.00009   0.00009  -0.02058
    D6        2.12836  -0.00001   0.00000  -0.00009  -0.00009   2.12827
    D7       -3.10614  -0.00001   0.00000  -0.00000  -0.00000  -3.10614
    D8        1.03634  -0.00001   0.00000  -0.00000  -0.00000   1.03633
    D9       -2.42355   0.00000   0.00000   0.00001   0.00001  -2.42355
   D10        3.04445   0.00000   0.00000   0.00002   0.00002   3.04447
         Item               Value     Threshold  Converged?
 Maximum Force            0.000051     0.000450     YES
 RMS     Force            0.000017     0.000300     YES
 Maximum Displacement     0.000137     0.001800     YES
 RMS     Displacement     0.000040     0.001200     YES
 Predicted change in Energy=-7.132114D-10
 Optimization completed.
    -- Stationary point found.
                       ----------------------------
                       !   Optimized Parameters   !
                       ! (Angstroms and Degrees)  !
 ----------------------                            ----------------------
 !      Name          Value   Derivative information (Atomic Units)     !
 ------------------------------------------------------------------------
 !       R2          1.0784   -DE/DX =    0.0                           !
 !       R3          1.3918   -DE/DX =    0.0                           !
 !       R4          1.3995   -DE/DX =    0.0                           !
 !       R5          1.0796   -DE/DX =    0.0                           !
 !       R6          1.291    -DE/DX =    0.0                           !
 !       R7          1.3949   -DE/DX =    0.0                           !
 !       R8          1.4554   -DE/DX =    0.0                           !
 !       R9          1.0792   -DE/DX =    0.0                           !
 !       R10         1.0799   -DE/DX =    0.0                           !
 !       A3        127.2255   -DE/DX =   -0.0001                        !
 !       A4        126.1249   -DE/DX =    0.0                           !
 !       A5        126.2986   -DE/DX =    0.0                           !
 !       A6        114.982    -DE/DX =    0.0                           !
 !       A7        107.5586   -DE/DX =    0.0                           !
 !       A8        109.3032   -DE/DX =    0.0                           !
 !       A9        129.6616   -DE/DX =    0.0                           !
 !       A10       127.9183   -DE/DX =    0.0                           !
 !       D4        179.9578   -DE/DX =    0.0                           !
 !       D5         -1.1844   -DE/DX =    0.0                           !
 !       D6        121.9461   -DE/DX =    0.0                           !
 !       D7       -177.9687   -DE/DX =    0.0                           !
 !       D8         59.3776   -DE/DX =    0.0                           !
 !       D9       -138.8594   -DE/DX =    0.0                           !
 !       D10       174.4343   -DE/DX =    0.0                           !
 ------------------------------------------------------------------------
 GradGradGradGradGradGradGradGradGradGradGradGradGradGradGradGradGradGrad


 ----------------------------------------------------------------------

 Electric dipole moment (input orientation):
 (Debye = 10**-18 statcoulomb cm , SI units = C m)
                  (au)            (Debye)         (10**-30 SI)
   Tot        0.712536D+00      0.181109D+01      0.604113D+01
   x          0.821947D-01      0.208918D+00      0.696876D+00
   y         -0.296236D+00     -0.752956D+00     -0.251159D+01
   z         -0.642803D+00     -0.163384D+01     -0.544991D+01

 Dipole polarizability, Alpha (input orientation).
 (esu units = cm**3 , SI units = C**2 m**2 J**-1)
 Alpha(0;0):
               (au)            (10**-24 esu)      (10**-40 SI)
   iso        0.505106D+02      0.748491D+01      0.832808D+01
   aniso      0.247775D+02      0.367164D+01      0.408526D+01
   xx         0.597226D+02      0.884998D+01      0.984693D+01
   yx         0.170803D+01      0.253104D+00      0.281617D+00
   yy         0.343085D+02      0.508400D+01      0.565671D+01
   zx         0.162974D+01      0.241502D+00      0.268707D+00
   zy        -0.975837D+00     -0.144604D+00     -0.160894D+00
   zz         0.575008D+02      0.852073D+01      0.948060D+01

 ----------------------------------------------------------------------

 Dipole orientation:
     1          0.00000000          0.00000000          0.00000000
     6          0.23507694          0.84723448         -1.83841696
     6          2.49825726          1.45593790         -3.03223622
     6         -1.70632445          1.54790343         -3.49210944
     1          4.37314421          1.19708016         -2.27073084
     1         -1.71732765          3.90291844         -4.12923368
     6          1.90286112          2.54394637         -5.35818477
     7         -0.61117922          2.56816584         -5.79955640
     1         -3.66926254          0.99481132         -3.50373816
     1          3.17752937          3.38243423         -6.71356693

 Electric dipole moment (dipole orientation):
 (Debye = 10**-18 statcoulomb cm , SI units = C m)
                  (au)            (Debye)         (10**-30 SI)
   Tot        0.712536D+00      0.181109D+01      0.604113D+01
   x          0.000000D+00      0.000000D+00      0.000000D+00
   y          0.000000D+00      0.000000D+00      0.000000D+00
   z          0.712536D+00      0.181109D+01      0.604113D+01

 Dipole polarizability, Alpha (dipole orientation).
 (esu units = cm**3 , SI units = C**2 m**2 J**-1)
 Alpha(0;0):
               (au)            (10**-24 esu)      (10**-40 SI)
   iso        0.505106D+02      0.748491D+01      0.832808D+01
   aniso      0.247775D+02      0.367164D+01      0.408526D+01
   xx         0.601301D+02      0.891037D+01      0.991412D+01
   yx        -0.306871D+00     -0.454737D-01     -0.505963D-01
   yy         0.391152D+02      0.579627D+01      0.644923D+01
   zx        -0.157183D+01     -0.232921D+00     -0.259160D+00
   zy        -0.945008D+01     -0.140036D+01     -0.155811D+01
   zz         0.522866D+02      0.774807D+01      0.862090D+01

 ----------------------------------------------------------------------
 1\1\GINC-BHC0108\Freq\RB3LYP\def2TZVP\C4H5N1\DHANAWAY\10-Jun-2022\1\\#
 N Geom=AllCheck Guess=TCheck SCRF=Check GenChk RB3LYP/def2TZVP Freq\\t
 s_zmat_initalOpt\\0,1\H\C,1,R2\C,2,R3,1,A3\C,2,R4,1,A4,3,D4,0\H,3,R5,2
 ,A5,1,D5,0\H,4,R6,2,A6,1,D6,0\C,3,R7,2,A7,5,D7,0\N,4,R8,2,A8,6,D8,0\H,
 4,R9,2,A9,6,D9,0\H,7,R10,3,A10,2,D10,0\\R2=1.0783853\R3=1.3918175\R4=1
 .39953869\R5=1.07958621\R6=1.2910345\R7=1.39489102\R8=1.45543839\R9=1.
 07920656\R10=1.07994967\A3=127.22554291\A4=126.12494107\A5=126.2986026
 9\A6=114.9819536\A7=107.55857676\A8=109.30315615\A9=129.66164486\A10=1
 27.91828065\D4=179.95782851\D5=-1.18444456\D6=121.9460717\D7=-177.9687
 2139\D8=59.37762663\D9=-138.85944886\D10=174.43426439\\Version=ES64L-G
 16RevA.03\HF=-210.1772527\RMSD=1.523e-09\RMSF=5.254e-05\ZeroPoint=0.07
 72594\Thermal=0.0809584\Dipole=0.0821947,-0.2962357,-0.6428029\DipoleD
 eriv=0.097886,-0.0035332,0.0034359,-0.0131059,0.1697665,0.0015478,-0.0
 033743,0.0028744,-0.028726,0.0090182,0.0913614,-0.0098309,0.0879303,-0
 .1857782,0.0412675,0.0518732,-0.0022642,-0.0189154,0.0599324,-0.033460
 3,-0.0207724,0.0122917,-0.1596081,0.0379478,-0.0926232,-0.0389044,-0.0
 212478,-0.0528637,-0.143148,-0.0624674,-0.3824307,-0.1623859,0.012498,
 -0.1833121,-0.0428255,0.1019054,-0.0567541,0.0012483,0.0403605,0.00086
 38,0.1634323,-0.0101943,0.0385056,-0.0016424,0.0833317,0.0513617,0.001
 5826,0.0273806,-0.0074416,0.098497,0.026188,-0.1405676,-0.1129739,0.27
 41348,-0.0145114,-0.0785098,0.0460629,0.0061353,-0.124633,-0.1039736,-
 0.0197066,-0.0014378,0.1868915,-0.1448958,0.1300041,0.0601239,0.155294
 ,-0.1266793,-0.0664188,0.4328258,0.1721166,-0.6155419,0.029542,0.03041
 52,-0.0201231,0.130755,0.173982,0.0163807,-0.005025,0.01113,0.0717974,
 0.0212846,0.0040397,-0.0641701,0.0097081,0.1534068,0.0447569,-0.078595
 8,0.0139271,-0.0336298\Polar=59.7226378,1.7080326,34.3085267,1.6297369
 ,-0.9758371,57.5007649\PG=C01 [X(C4H5N1)]\NImag=1\\0.04891140,0.000504
 09,0.02280662,-0.00021544,-0.00017398,0.36877798,-0.05828957,0.0010555
 0,0.00032763,0.56212413,-0.00108917,-0.03043920,0.00035498,-0.00455861
 ,0.12943664,0.00029200,-0.00102393,-0.35190682,0.00495882,-0.00215745,
 0.83549435,0.00816018,0.00003352,0.00451938,-0.25725607,0.00051423,-0.
 12325466,0.81659085,0.00016078,0.00105453,-0.00011970,0.00096362,-0.06
 330128,-0.00006851,-0.00432791,0.13370284,-0.02335026,-0.00002532,-0.0
 0718289,-0.07774874,0.00104614,-0.19495492,-0.06659921,-0.00316951,0.5
 8856362,0.00853304,-0.00096328,-0.00478973,-0.23269672,0.00491695,0.11
 659261,-0.06755904,-0.00013081,-0.03961560,0.77781070,0.00089313,-0.00
 094114,-0.00024078,0.04899739,-0.06763705,0.00034413,-0.00891584,0.009
 82828,-0.03803400,-0.10977098,0.14172816,0.02222433,0.00142175,-0.0076
 2038,0.08177112,0.00308275,-0.17186561,0.02227983,0.00218800,0.0499768
 4,0.01361773,-0.00294882,0.42424011,0.00047788,-0.00008455,-0.00029244
 ,-0.01144785,0.00020250,0.01036627,-0.32377664,0.00437036,0.07862875,-
 0.00315591,0.00057655,-0.00120678,0.34017667,0.00000739,-0.00290994,0.
 00001066,-0.00055756,0.00101395,-0.00039878,0.00518796,-0.03517040,-0.
 00141369,-0.00060382,0.00595133,-0.00127214,-0.00510123,0.02506470,0.0
 0117846,-0.00006525,0.00023505,-0.01817899,0.00026264,0.01192061,0.078
 80805,-0.00162776,-0.08337760,-0.00451789,-0.00045206,-0.00317812,-0.0
 8592068,0.00169247,0.07503522,0.00057980,0.00080567,-0.00000519,0.0150
 4826,-0.01041838,-0.00399696,-0.00937012,-0.00154653,-0.01771305,-0.02
 147229,-0.03154728,0.03719493,0.00008451,0.00318281,-0.00041890,0.0454
 3627,0.00043603,0.00050777,-0.00009815,0.00694772,0.00270824,-0.006149
 48,-0.00303306,-0.00013699,-0.00714430,-0.00809548,-0.09611417,0.06762
 910,0.00026204,0.00081573,-0.00045845,0.02287324,0.15859252,0.00114431
 ,-0.00003809,-0.00017803,0.05458979,0.00374921,-0.01047712,-0.00859938
 ,0.00195886,-0.04172378,-0.03433608,-0.04283070,0.04105362,-0.00010093
 ,-0.00195342,-0.00137698,-0.02414709,-0.03855552,-0.04990483,-0.004852
 68,-0.00064529,-0.00097951,0.05097044,0.00158642,-0.00366860,-0.137140
 55,0.00478800,0.03737482,-0.08408375,-0.04803731,-0.00130018,-0.001460
 38,-0.00183436,0.02482520,-0.03669247,-0.00993432,-0.05907173,0.632267
 46,0.00002017,0.00508944,0.00014424,-0.00785634,0.01229315,0.00151686,
 0.00246732,-0.06706239,0.01553300,0.00608415,0.01372363,-0.01028427,0.
 00020149,-0.00112406,-0.00066094,-0.01611913,0.00501786,0.00900194,-0.
 01120757,0.14824846,-0.00379421,0.00018583,-0.00130744,-0.06441724,-0.
 00090708,-0.05681518,0.08143827,0.00351512,-0.29481935,-0.03181399,0.0
 2078677,-0.06029324,-0.00262423,-0.00003110,0.00428373,0.01261183,0.00
 946099,0.01832053,0.11585190,-0.03411652,0.76356271,-0.00436601,-0.000
 25245,0.00074413,-0.05813060,0.00502495,0.00472121,-0.03819492,-0.0040
 4377,0.09616446,-0.04957459,0.07626416,-0.11903660,-0.00034833,-0.0001
 0250,0.00574494,0.00559693,-0.01066933,0.06928156,-0.29202719,0.014369
 42,0.01518113,0.45954971,-0.00095547,0.00577206,0.00010026,-0.03851476
 ,0.01165234,0.00857574,0.00823810,0.01619788,0.03012545,0.03326768,0.0
 2539156,-0.07128638,-0.00017203,0.00757504,0.00135545,0.01711346,-0.07
 188627,0.05655794,0.04870743,-0.08629382,-0.02028526,-0.06679748,0.108
 89907,0.00443458,-0.00030239,-0.00052640,0.00293560,0.00020990,-0.0690
 0039,0.02340981,-0.00568256,-0.00399183,0.03315095,0.04783627,-0.20837
 951,-0.00003378,0.00288804,-0.00469230,-0.00030371,-0.02354344,0.04595
 874,0.01286478,-0.00325243,-0.09605218,-0.04541601,-0.01312468,0.33170
 657,-0.00003845,-0.00060076,0.00041586,-0.00941796,0.00362503,-0.00928
 561,-0.00254956,0.00081668,0.00340826,-0.32195803,0.06976030,-0.056888
 82,-0.00044434,-0.00019934,-0.00061141,0.00071490,0.00009848,0.0013764
 3,0.00252826,0.00115044,-0.00068580,-0.00405147,-0.00219283,-0.0026143
 9,0.33538036,0.00001767,-0.00169256,0.00006203,-0.00875798,-0.00038835
 ,-0.00039675,0.00026576,0.00352403,0.00566747,0.07709613,-0.03557980,0
 .01013294,-0.00023809,0.00076375,-0.00005172,0.01595730,-0.00098669,0.
 01353050,0.00502888,0.00163770,-0.00330787,-0.01605348,-0.01202705,-0.
 00767392,-0.07261169,0.04297615,-0.00082873,0.00015629,-0.00002607,0.0
 1394361,-0.00588980,0.01190831,0.00442226,0.00107916,-0.00219516,-0.05
 038562,0.01456600,-0.06499118,0.00062480,0.00066160,0.00100641,-0.0034
 8754,-0.00117632,-0.00242562,0.00012724,0.00043307,-0.00813214,-0.0275
 8501,0.00932887,-0.00173533,0.06486131,-0.01795927,0.06626462,0.000884
 41,0.00014755,0.00027531,-0.00090406,0.00019608,0.00327491,0.01109587,
 -0.00105042,0.00945058,-0.00584339,0.00177986,0.00134443,-0.00010559,0
 .00002066,-0.00090877,0.00007421,0.00111469,-0.00013686,-0.12950913,0.
 01089005,-0.12174766,-0.01845352,0.00130590,-0.02842784,-0.00016370,-0
 .00070451,-0.00169231,0.14292491,0.00000537,0.00075241,-0.00003957,0.0
 0228102,0.00466157,-0.00024184,-0.00043009,0.00136350,-0.00258524,-0.0
 0180053,0.00364921,0.00133707,-0.00001705,-0.00198010,0.00000563,-0.00
 030116,0.00148199,-0.00142073,0.01154813,-0.03152996,0.02469913,0.0022
 6048,-0.00528082,0.00264520,0.00015369,0.00177281,-0.00119959,-0.01369
 986,0.02510939,-0.00108503,-0.00013491,-0.00026499,0.00181841,0.000248
 71,-0.00430324,-0.01642433,0.00192690,-0.01029493,0.00209762,0.0009731
 9,0.00105748,0.00055902,-0.00018363,0.00014398,0.00026568,0.00003557,0
 .00075349,-0.12602392,0.02168505,-0.26874744,0.00020019,-0.00134739,0.
 00671264,0.00002416,-0.00000342,0.00032615,0.13856821,-0.02320007,0.27
 461687\\0.00018365,-0.00000187,-0.00000004,-0.00018725,-0.00008324,-0.
 00000035,-0.00000160,0.00008270,0.00000263,0.00000899,0.00000072,0.000
 00143,-0.00000014,0.00000048,0.00000023,0.00000277,-0.00000084,-0.0000
 0013,-0.00000961,-0.00000179,-0.00000417,0.00000387,0.00000351,-0.0000
 0176,0.00000066,0.00000083,0.00000228,-0.00000134,-0.00000050,-0.00000
 011\\\@


 HE THAT IS UNAWARE OF HIS IGNORANCE WILL BE MISLED BY HIS KNOWLEDGE.

                                        -- WHATLEY
 Job cpu time:       0 days  0 hours 17 minutes 46.2 seconds.
 Elapsed time:       0 days  0 hours  1 minutes 29.8 seconds.
 File lengths (MBytes):  RWF=     34 Int=      0 D2E=      0 Chk=     32 Scr=      1
 Normal termination of Gaussian 16 at Fri Jun 10 22:31:26 2022.
